{
    "cas": "100-66-3",
    "cid": 7519,
    "iupac_name": "anisole",
    "canonical_smiles": "COC1=CC=CC=C1",
    "isomeric_smiles": "COC1=CC=CC=C1",
    "inchi": "1S/C7H8O/c1-8-7-5-3-2-4-6-7/h2-6H,1H3",
    "inchikey": "RDOXTESZEPMUJZ-UHFFFAOYSA-N",
    "molecular_formula": "C7H8O",
    "compound_groups": [
        "aromatics",
        "ethers"
    ],
    "properties": {
        "cetane_number": {
            "value": "6",
            "method": "IQT",
            "source": "NREL (2014)"
        },
        "ysi_unified": {
            "value": "107.1"
        },
        "research_octane_number": {
            "value": "103.2",
            "source": "[1]"
        },
        "motor_octane_number": {
            "value": "91",
            "source": "[1]"
        },
        "octane_sensitivity": {
            "value": "12.2",
            "source": "[1]"
        },
        "autoignition_temp": {
            "value": "475",
            "source": "Co-Optima DB"
        },
        "boiling_point": {
            "value": "155.5",
            "source": "The Merck Index"
        },
        "flash_point": {
            "value": "43",
            "source": "Co-Optima DB"
        },
        "heat_of_vaporization": {
            "value": "46.3",
            "source": "Chickos and Acree, 2003. Enthalpies of Vaporization of Organic and Organometallic Compounds"
        },
        "melting_point": {
            "value": "-37.3",
            "source": "The Merck Index"
        }
    }
}