{
    "cas": "106-70-7",
    "cid": 7824,
    "iupac_name": "methyl hexanoate",
    "canonical_smiles": "CCCCCC(=O)OC",
    "isomeric_smiles": "CCCCCC(=O)OC",
    "inchi": "1S/C7H14O2/c1-3-4-5-6-7(8)9-2/h3-6H2,1-2H3",
    "inchikey": "NUKZAGXMHTUAFE-UHFFFAOYSA-N",
    "molecular_formula": "C7H14O2",
    "compound_groups": [
        "esters"
    ],
    "properties": {
        "cetane_number": {
            "value": "25.3",
            "method": "IQT",
            "source": "Marquardt (2015)"
        },
        "ysi_unified": {
            "value": "26.7"
        },
        "research_octane_number": {
            "value": "87.3",
            "source": ""
        },
        "motor_octane_number": {
            "value": "84",
            "source": ""
        },
        "octane_sensitivity": {
            "value": "3.3",
            "source": ""
        },
        "boiling_point": {
            "value": "149.5",
            "source": "Scifinder"
        },
        "flash_point": {
            "value": "43",
            "source": "Co-Optima DB"
        },
        "melting_point": {
            "value": "-71",
            "source": "Scifinder"
        }
    }
}