{
    "cas": "107-87-9",
    "cid": 7895,
    "iupac_name": "pentan-2-one",
    "canonical_smiles": "CCCC(=O)C",
    "isomeric_smiles": "CCCC(=O)C",
    "inchi": "1S/C5H10O/c1-3-4-5(2)6/h3-4H2,1-2H3",
    "inchikey": "XNLICIUVMPYHGG-UHFFFAOYSA-N",
    "molecular_formula": "C5H10O",
    "compound_groups": [
        "saturated alkanone",
        "ketone",
        "ketones"
    ],
    "properties": {
        "ysi_unified": {
            "value": "21.1"
        },
        "research_octane_number": {
            "value": "105.7",
            "source": "[9], [11]"
        },
        "motor_octane_number": {
            "value": "103.27",
            "source": "[9], [11]"
        },
        "octane_sensitivity": {
            "value": "2.43",
            "source": "[9], [11]"
        },
        "kinematic_viscosity": {
            "value": "0.5184"
        },
        "autoignition_temp": {
            "value": "452",
            "source": "Co-Optima DB"
        },
        "boiling_point": {
            "value": "101.7",
            "source": "Scifinder"
        },
        "flash_point": {
            "value": "7",
            "source": "Co-Optima DB"
        },
        "heat_of_vaporization": {
            "value": "38.4",
            "source": "Chickos and Acree, 2003. Enthalpies of Vaporization of Organic and Organometallic Compounds"
        },
        "melting_point": {
            "value": "-78",
            "source": "Scifinder"
        }
    }
}