{
    "cas": "108-82-7",
    "cid": 7957,
    "iupac_name": "2,6-dimethylheptan-4-ol",
    "canonical_smiles": "CC(C)CC(CC(C)C)O",
    "isomeric_smiles": "CC(C)CC(CC(C)C)O",
    "inchi": "1S/C9H20O/c1-7(2)5-9(10)6-8(3)4/h7-10H,5-6H2,1-4H3",
    "inchikey": "HXQPUEQDBSPXTE-UHFFFAOYSA-N",
    "molecular_formula": "C9H20O",
    "properties": {
        "autoignition_temp": {
            "value": "257",
            "source": "Co-Optima DB"
        },
        "flash_point": {
            "value": "66",
            "source": "Co-Optima DB"
        }
    }
}