{
    "cas": "112-61-8",
    "cid": 8201,
    "iupac_name": "methyl octadecanoate",
    "canonical_smiles": "CCCCCCCCCCCCCCCCCC(=O)OC",
    "isomeric_smiles": "CCCCCCCCCCCCCCCCCC(=O)OC",
    "inchi": "1S/C19H38O2/c1-3-4-5-6-7-8-9-10-11-12-13-14-15-16-17-18-19(20)21-2/h3-18H2,1-2H3",
    "inchikey": "HPEUJPJOZXNMSJ-UHFFFAOYSA-N",
    "molecular_formula": "C19H38O2",
    "compound_groups": [
        "esters"
    ],
    "properties": {
        "cetane_number": {
            "value": "86",
            "method": "CFR",
            "source": "NREL (2014)"
        },
        "boiling_point": {
            "value": "443",
            "source": "Scifinder"
        },
        "melting_point": {
            "value": "39.1",
            "source": "Scifinder"
        }
    }
}