{
    "cas": "115-18-4",
    "cid": 8257,
    "iupac_name": "2-methylbut-3-en-2-ol",
    "canonical_smiles": "CC(C)(C=C)O",
    "isomeric_smiles": "CC(C)(C=C)O",
    "inchi": "1S/C5H10O/c1-4-5(2,3)6/h4,6H,1H2,2-3H3",
    "inchikey": "HNVRRHSXBLFLIG-UHFFFAOYSA-N",
    "molecular_formula": "C5H10O",
    "compound_groups": [
        "unsaturated alcohol"
    ],
    "properties": {
        "ysi_unified": {
            "value": "25"
        },
        "research_octane_number": {
            "value": "102.7",
            "source": ""
        },
        "motor_octane_number": {
            "value": "95",
            "source": ""
        },
        "octane_sensitivity": {
            "value": "7.7",
            "source": ""
        },
        "autoignition_temp": {
            "value": "380",
            "source": "Co-Optima DB"
        },
        "boiling_point": {
            "value": "97.0",
            "source": "Scifinder"
        },
        "flash_point": {
            "value": "10",
            "source": "Co-Optima DB"
        },
        "heat_of_vaporization": {
            "value": "45.56",
            "source": "NREL, May 2016\u000b"
        }
    }
}