{
    "cas": "115-10-6",
    "cid": 8254,
    "iupac_name": "methoxymethane",
    "canonical_smiles": "COC",
    "isomeric_smiles": "COC",
    "inchi": "1S/C2H6O/c1-3-2/h1-2H3",
    "inchikey": "LCGLNKUTAGEVQW-UHFFFAOYSA-N",
    "molecular_formula": "C2H6O",
    "compound_groups": [
        "ethers"
    ],
    "properties": {
        "cetane_number": {
            "value": "67",
            "method": "Unknown",
            "source": "NREL (2014)"
        },
        "autoignition_temp": {
            "value": "350",
            "source": "Co-Optima DB"
        },
        "boiling_point": {
            "value": "-25",
            "source": "J. Burger et al./ Fuel 89(2010) 3315-3319"
        },
        "flash_point": {
            "value": "-41",
            "source": "Co-Optima DB"
        },
        "heat_of_vaporization": {
            "value": "21.53",
            "source": "111.64 cal/g Pubchem, converted to kJ/mol"
        },
        "melting_point": {
            "value": "-141",
            "source": "J. Burger et al./ Fuel 89(2010) 3315-3319"
        }
    }
}