{
    "cas": "1193-11-9",
    "cid": 62384,
    "iupac_name": "2,2,4-trimethyl-1,3-dioxolane",
    "canonical_smiles": "CC1COC(O1)(C)C",
    "isomeric_smiles": "CC1COC(O1)(C)C",
    "inchi": "1S/C6H12O2/c1-5-4-7-6(2,3)8-5/h5H,4H2,1-3H3",
    "inchikey": "ALTFLAPROMVXNX-UHFFFAOYSA-N",
    "molecular_formula": "C6H12O2",
    "compound_groups": [],
    "properties": {
        "ysi_unified": {
            "value": "25.6"
        },
        "flash_point": {
            "value": "32",
            "source": "Co-Optima DB"
        }
    }
}