{
    "cas": "128821-84-1",
    "cid": 7720,
    "iupac_name": "2-ethylhexan-1-ol",
    "canonical_smiles": "CCCCC(CC)CO",
    "isomeric_smiles": "CCCCC(CC)CO",
    "inchi": "1S/C8H18O/c1-3-5-6-8(4-2)7-9/h8-9H,3-7H2,1-2H3",
    "inchikey": "YIWUKEYIRIRTPP-UHFFFAOYSA-N",
    "molecular_formula": "C8H18O",
    "compound_groups": [
        "alcohols"
    ],
    "properties": {
        "cetane_number": {
            "value": "23.5",
            "method": "IQT",
            "source": "NREL (2014)"
        },
        "ysi_unified": {
            "value": "50.4"
        },
        "pour_point": {
            "value": "-43"
        },
        "autoignition_temp": {
            "value": "270",
            "source": "Co-Optima DB"
        },
        "boiling_point": {
            "value": "184.3",
            "source": "Scifinder"
        },
        "flash_point": {
            "value": "73",
            "source": "Co-Optima DB"
        },
        "melting_point": {
            "value": "-76",
            "source": "Scifinder"
        }
    }
}