{
    "cas": "13353-03-2",
    "cid": 54136657,
    "iupac_name": "methoxy(methoxymethoxymethoxy)methane",
    "canonical_smiles": "COCOCOCOC",
    "isomeric_smiles": "COCOCOCOC",
    "inchi": "1S/C5H12O4/c1-6-3-8-5-9-4-7-2/h3-5H2,1-2H3",
    "inchikey": "NYENPQBYHWPGNG-UHFFFAOYSA-N",
    "molecular_formula": "C5H12O4",
    "properties": {
        "flash_point": {
            "value": "54",
            "source": "Co-Optima DB"
        }
    }
}