{
    "cas": "141-78-6",
    "cid": 8857,
    "iupac_name": "ethyl acetate",
    "canonical_smiles": "CCOC(=O)C",
    "isomeric_smiles": "CCOC(=O)C",
    "inchi": "1S/C4H8O2/c1-3-6-4(2)5/h3H2,1-2H3",
    "inchikey": "XEKOWRVHYACXOJ-UHFFFAOYSA-N",
    "molecular_formula": "C4H8O2",
    "compound_groups": [
        "saturated esters",
        "acetyl (has 2 c-o bonds, formed by reaction of aldehyde & alcohol)",
        "oxygen compounds"
    ],
    "properties": {
        "ysi_unified": {
            "value": "13.4"
        },
        "kinematic_viscosity": {
            "value": "0.4238"
        },
        "autoignition_temp": {
            "value": "427",
            "source": "Co-Optima DB"
        },
        "boiling_point": {
            "value": "77",
            "source": "Scifinder"
        },
        "flash_point": {
            "value": "-3",
            "source": "Co-Optima DB"
        },
        "heat_of_vaporization": {
            "value": "35.2",
            "source": "Chickos and Acree, 2003. Enthalpies of Vaporization of Organic and Organometallic Compounds"
        },
        "melting_point": {
            "value": "-83",
            "source": "Scifinder"
        }
    }
}