{
    "cas": "1456-16-2",
    "cid": 5191689,
    "iupac_name": "2-methyl-5-propylfuran",
    "canonical_smiles": "CCCC1=CC=C(O1)C",
    "isomeric_smiles": "CCCC1=CC=C(O1)C",
    "inchi": "1S/C8H12O/c1-3-4-8-6-5-7(2)9-8/h5-6H,3-4H2,1-2H3",
    "inchikey": "XPYQVFYTBQVKIS-UHFFFAOYSA-N",
    "molecular_formula": "C8H12O",
    "properties": {
        "boiling_point": {
            "value": "138",
            "source": "Scifinder"
        }
    }
}