{
    "cas": "1678-82-6",
    "cid": 7459,
    "iupac_name": "1-methyl-4-propan-2-ylcyclohexane",
    "canonical_smiles": "CC1CCC(CC1)C(C)C",
    "isomeric_smiles": "CC1CCC(CC1)C(C)C",
    "inchi": "1S/C10H20/c1-8(2)10-6-4-9(3)5-7-10/h8-10H,4-7H2,1-3H3",
    "inchikey": "CFJYNSNXFXLKNS-UHFFFAOYSA-N",
    "molecular_formula": "C10H20",
    "properties": {
        "flash_point": {
            "value": "45",
            "source": "Co-Optima DB"
        },
        "melting_point": {
            "value": "-89.8",
            "source": "Scifinder"
        }
    }
}