{
    "cas": "2051-30-1",
    "cid": 16319,
    "iupac_name": "2,6-dimethyloctane",
    "canonical_smiles": "CCC(C)CCCC(C)C",
    "isomeric_smiles": "CCC(C)CCCC(C)C",
    "inchi": "1S/C10H22/c1-5-10(4)8-6-7-9(2)3/h9-10H,5-8H2,1-4H3",
    "inchikey": "ZALHPSXXQIPKTQ-UHFFFAOYSA-N",
    "molecular_formula": "C10H22",
    "compound_groups": [
        "alkanes"
    ],
    "properties": {
        "cetane_number": {
            "value": "51.7",
            "method": "IQT",
            "source": "Marquardt (2015)"
        },
        "boiling_point": {
            "value": "160.4",
            "source": "Scifinder"
        },
        "flash_point": {
            "value": "34",
            "source": "Co-Optima DB"
        }
    }
}