{
    "cas": "21368-68-3",
    "cid": 2537,
    "iupac_name": "1,7,7-trimethylbicyclo[2.2.1]heptan-2-one",
    "canonical_smiles": "CC1(C2CCC1(C(=O)C2)C)C",
    "isomeric_smiles": "CC1(C2CCC1(C(=O)C2)C)C",
    "inchi": "1S/C10H16O/c1-9(2)7-4-5-10(9,3)8(11)6-7/h7H,4-6H2,1-3H3",
    "inchikey": "DSSYKIVIOFKYAU-UHFFFAOYSA-N",
    "molecular_formula": "C10H16O",
    "properties": {
        "boiling_point": {
            "value": "204",
            "source": "Scifinder"
        },
        "flash_point": {
            "value": "64.4",
            "source": "Co-Optima DB"
        }
    }
}