{
    "cas": "23708-56-7",
    "cid": 32045,
    "iupac_name": "undecan-6-ol",
    "canonical_smiles": "CCCCCC(CCCCC)O",
    "isomeric_smiles": "CCCCCC(CCCCC)O",
    "inchi": "1S/C11H24O/c1-3-5-7-9-11(12)10-8-6-4-2/h11-12H,3-10H2,1-2H3",
    "inchikey": "YBIXBBGRHOUVBB-UHFFFAOYSA-N",
    "molecular_formula": "C11H24O",
    "properties": {
        "boiling_point": {
            "value": "228",
            "source": "Scifinder"
        }
    }
}