{
    "cas": "25167-70-8",
    "cid": 7868,
    "iupac_name": "2,4,4-trimethylpent-1-ene",
    "canonical_smiles": "CC(=C)CC(C)(C)C",
    "isomeric_smiles": "CC(=C)CC(C)(C)C",
    "inchi": "1S/C8H16/c1-7(2)6-8(3,4)5/h1,6H2,2-5H3",
    "inchikey": "FXNDIJDIPNCZQJ-UHFFFAOYSA-N",
    "molecular_formula": "C8H16",
    "compound_groups": [
        "olefins",
        "olefin (alkene) with single c=c double bond"
    ],
    "properties": {
        "cetane_number": {
            "value": "8.8",
            "method": "IQT",
            "source": "NREL (2014)"
        },
        "ysi_unified": {
            "value": "68.5"
        },
        "research_octane_number": {
            "value": "106",
            "source": "[1], [9]"
        },
        "motor_octane_number": {
            "value": "86.5",
            "source": "[1], [9]"
        },
        "octane_sensitivity": {
            "value": "19.5",
            "source": "[1], [9]"
        },
        "kinematic_viscosity": {
            "value": "0.3684"
        },
        "autoignition_temp": {
            "value": "391",
            "source": "Co-Optima DB"
        },
        "boiling_point": {
            "value": "101.4",
            "source": "Scifinder"
        },
        "flash_point": {
            "value": "-5",
            "source": "Co-Optima DB"
        },
        "heat_of_vaporization": {
            "value": "35.7",
            "source": "Chickos and Acree, 2003. Enthalpies of Vaporization of Organic and Organometallic Compounds"
        }
    }
}