{
    "cas": "2568-90-3",
    "cid": 17379,
    "iupac_name": "1-(butoxymethoxy)butane",
    "canonical_smiles": "CCCCOCOCCCC",
    "isomeric_smiles": "CCCCOCOCCCC",
    "inchi": "1S/C9H20O2/c1-3-5-7-10-9-11-8-6-4-2/h3-9H2,1-2H3",
    "inchikey": "QLCJOAMJPCOIDI-UHFFFAOYSA-N",
    "molecular_formula": "C9H20O2",
    "compound_groups": [
        "ethers"
    ],
    "properties": {
        "cetane_number": {
            "value": "74",
            "method": "Unknown",
            "source": "NREL (2014)"
        },
        "ysi_unified": {
            "value": "47.7"
        },
        "flash_point": {
            "value": "62",
            "source": "Co-Optima DB"
        }
    }
}