{
    "cas": "38815-29-1",
    "cid": 11582,
    "iupac_name": "2-methylhexane",
    "canonical_smiles": "CCCCC(C)C",
    "isomeric_smiles": "CCCCC(C)C",
    "inchi": "1S/C7H16/c1-4-5-6-7(2)3/h7H,4-6H2,1-3H3",
    "inchikey": "GXDHCNNESPLIKD-UHFFFAOYSA-N",
    "molecular_formula": "C7H16",
    "compound_groups": [
        "alkanes",
        "paraffin (non-normal)"
    ],
    "properties": {
        "cetane_number": {
            "value": "43.5",
            "method": "IQT",
            "source": "NREL (2014)"
        },
        "ysi_unified": {
            "value": "42.4"
        },
        "research_octane_number": {
            "value": "42.4",
            "source": "[1]"
        },
        "motor_octane_number": {
            "value": "46.4",
            "source": "[1]"
        },
        "octane_sensitivity": {
            "value": "-4",
            "source": "[1]"
        },
        "kinematic_viscosity": {
            "value": "0.4764"
        },
        "autoignition_temp": {
            "value": "220",
            "source": "Co-Optima DB"
        },
        "boiling_point": {
            "value": "90",
            "source": "Scifinder"
        },
        "flash_point": {
            "value": "-18",
            "source": "Co-Optima DB"
        },
        "melting_point": {
            "value": "-118",
            "source": "Scifinder"
        }
    }
}