{
    "cas": "39276-09-0",
    "cid": 7362,
    "iupac_name": "furan-2-carbaldehyde",
    "canonical_smiles": "C1=COC(=C1)C=O",
    "isomeric_smiles": "C1=COC(=C1)C=O",
    "inchi": "1S/C5H4O2/c6-4-5-2-1-3-7-5/h1-4H",
    "inchikey": "HYBBIBNJHNGZAN-UHFFFAOYSA-N",
    "molecular_formula": "C5H4O2",
    "compound_groups": [
        "cyclic ethers",
        "aromatics",
        "miscellaneous - doesn't fit in other categories"
    ],
    "properties": {
        "cetane_number": {
            "value": "13.9",
            "method": "IQT",
            "source": "NREL (2014)"
        },
        "kinematic_viscosity": {
            "value": "1.1596"
        },
        "autoignition_temp": {
            "value": "315",
            "source": "Co-Optima DB"
        },
        "boiling_point": {
            "value": "162",
            "source": "Chemspider"
        },
        "flash_point": {
            "value": "60",
            "source": "Co-Optima DB"
        },
        "heat_of_vaporization": {
            "value": "38.6",
            "source": "Pub Chem"
        },
        "melting_point": {
            "value": "-38.7",
            "source": "Scifinder"
        }
    }
}