{
    "cas": "4390-04-9",
    "cid": 20414,
    "iupac_name": "2,2,4,4,6,8,8-heptamethylnonane",
    "canonical_smiles": "CC(CC(C)(C)C)CC(C)(C)CC(C)(C)C",
    "isomeric_smiles": "CC(CC(C)(C)C)CC(C)(C)CC(C)(C)C",
    "inchi": "1S/C16H34/c1-13(10-14(2,3)4)11-16(8,9)12-15(5,6)7/h13H,10-12H2,1-9H3",
    "inchikey": "VCLJODPNBNEBKW-UHFFFAOYSA-N",
    "molecular_formula": "C16H34",
    "compound_groups": [
        "alkanes"
    ],
    "properties": {
        "cetane_number": {
            "value": "15",
            "method": "CFR",
            "source": "NREL (2014)"
        },
        "boiling_point": {
            "value": "240",
            "source": "Alfa Aesar"
        }
    }
}