{
    "cas": "497-23-4",
    "cid": 10341,
    "iupac_name": "2H-furan-5-one",
    "canonical_smiles": "C1C=CC(=O)O1",
    "isomeric_smiles": "C1C=CC(=O)O1",
    "inchi": "1S/C4H4O2/c5-4-2-1-3-6-4/h1-2H,3H2",
    "inchikey": "VIHAEDVKXSOUAT-UHFFFAOYSA-N",
    "molecular_formula": "C4H4O2",
    "properties": {
        "boiling_point": {
            "value": "212",
            "source": "Scifinder 108C @ 24 torr, Chemspider @ 760 torr"
        },
        "flash_point": {
            "value": "101",
            "source": "Co-Optima DB"
        },
        "melting_point": {
            "value": "4.5",
            "source": "Scifinder"
        }
    }
}