{
    "cas": "54022-95-6",
    "cid": 10883,
    "iupac_name": "ethyl 4-oxopentanoate",
    "canonical_smiles": "CCOC(=O)CCC(=O)C",
    "isomeric_smiles": "CCOC(=O)CCC(=O)C",
    "inchi": "1S/C7H12O3/c1-3-10-7(9)5-4-6(2)8/h3-5H2,1-2H3",
    "inchikey": "GMEONFUTDYJSNV-UHFFFAOYSA-N",
    "molecular_formula": "C7H12O3",
    "compound_groups": [
        "esters",
        "ketones"
    ],
    "properties": {
        "cetane_number": {
            "value": "6",
            "method": "IQT",
            "source": "NREL (2014)"
        },
        "boiling_point": {
            "value": "205.8",
            "source": "Scifinder"
        }
    }
}