{
    "cas": "540-84-1",
    "cid": 10907,
    "iupac_name": "2,2,4-trimethylpentane",
    "canonical_smiles": "CC(C)CC(C)(C)C",
    "isomeric_smiles": "CC(C)CC(C)(C)C",
    "inchi": "1S/C8H18/c1-7(2)6-8(3,4)5/h7H,6H2,1-5H3",
    "inchikey": "NHTMVDHEPJAVLT-UHFFFAOYSA-N",
    "molecular_formula": "C8H18",
    "compound_groups": [
        "alkanes",
        "paraffin (non-normal)"
    ],
    "properties": {
        "cetane_number": {
            "value": "18",
            "method": "IQT",
            "source": "NREL (2014)"
        },
        "ysi_unified": {
            "value": "61.7"
        },
        "research_octane_number": {
            "value": "100",
            "source": "[1]"
        },
        "motor_octane_number": {
            "value": "100",
            "source": "[1]"
        },
        "octane_sensitivity": {
            "value": "0",
            "source": "[1]"
        },
        "kinematic_viscosity": {
            "value": "0.6033"
        },
        "autoignition_temp": {
            "value": "417",
            "source": "Co-Optima DB"
        },
        "boiling_point": {
            "value": "99.5",
            "source": "Scifinder"
        },
        "flash_point": {
            "value": "-12",
            "source": "Co-Optima DB"
        },
        "heat_of_vaporization": {
            "value": "35.06",
            "source": "NREL, 2016"
        },
        "melting_point": {
            "value": "-107",
            "source": "Scifinder"
        }
    }
}