{
    "cas": "563-80-4",
    "cid": 11251,
    "iupac_name": "3-methylbutan-2-one",
    "canonical_smiles": "CC(C)C(=O)C",
    "isomeric_smiles": "CC(C)C(=O)C",
    "inchi": "1S/C5H10O/c1-4(2)5(3)6/h4H,1-3H3",
    "inchikey": "SYBYTAAJFKOIEJ-UHFFFAOYSA-N",
    "molecular_formula": "C5H10O",
    "compound_groups": [
        "saturated alkanone"
    ],
    "properties": {
        "ysi_unified": {
            "value": "26.6"
        },
        "research_octane_number": {
            "value": "99.5",
            "source": "[9]"
        },
        "motor_octane_number": {
            "value": "102.2",
            "source": "[9]"
        },
        "octane_sensitivity": {
            "value": "-2.7",
            "source": "[9]"
        },
        "boiling_point": {
            "value": "93",
            "source": "Scifinder"
        },
        "flash_point": {
            "value": "11",
            "source": "Co-Optima DB"
        }
    }
}