{
    "cas": "58718-78-8",
    "cid": 5326161,
    "iupac_name": "(E)-pent-2-ene",
    "canonical_smiles": "CCC=CC",
    "isomeric_smiles": "CC/C=C/C",
    "inchi": "1S/C5H10/c1-3-5-4-2/h3,5H,4H2,1-2H3/b5-3+",
    "inchikey": "QMMOXUPEWRXHJS-HWKANZROSA-N",
    "molecular_formula": "C5H10",
    "properties": {
        "research_octane_number": {
            "value": "87.8",
            "source": ""
        },
        "motor_octane_number": {
            "value": "77.2",
            "source": ""
        },
        "octane_sensitivity": {
            "value": "10.6",
            "source": ""
        },
        "boiling_point": {
            "value": "36.3",
            "source": "Scifinder"
        },
        "flash_point": {
            "value": "-45",
            "source": "Co-Optima DB"
        },
        "melting_point": {
            "value": "-140.2",
            "source": "Scifinder"
        }
    },
    "compound_groups": []
}