{
    "cas": "5911-04-6",
    "cid": 22202,
    "iupac_name": "3-methylnonane",
    "canonical_smiles": "CCCCCCC(C)CC",
    "isomeric_smiles": "CCCCCCC(C)CC",
    "inchi": "1S/C10H22/c1-4-6-7-8-9-10(3)5-2/h10H,4-9H2,1-3H3",
    "inchikey": "PLZDDPSCZHRBOY-UHFFFAOYSA-N",
    "molecular_formula": "C10H22",
    "properties": {
        "boiling_point": {
            "value": "167.9",
            "source": "Scifinder"
        }
    }
}