{
    "cas": "5912-86-7",
    "cid": 853433,
    "iupac_name": "2-methoxy-4-[(E)-prop-1-enyl]phenol",
    "canonical_smiles": "CC=CC1=CC(=C(C=C1)O)OC",
    "isomeric_smiles": "C/C=C/C1=CC(=C(C=C1)O)OC",
    "inchi": "1S/C10H12O2/c1-3-4-8-5-6-9(11)10(7-8)12-2/h3-7,11H,1-2H3/b4-3+",
    "inchikey": "BJIOGJUNALELMI-ONEGZZNKSA-N",
    "molecular_formula": "C10H12O2",
    "properties": {
        "boiling_point": {
            "value": "266",
            "source": "Scifinder"
        },
        "flash_point": {
            "value": "112",
            "source": "Co-Optima DB"
        }
    }
}