{
    "cas": "61193-21-3",
    "cid": 14257,
    "iupac_name": "undecane",
    "canonical_smiles": "CCCCCCCCCCC",
    "isomeric_smiles": "CCCCCCCCCCC",
    "inchi": "1S/C11H24/c1-3-5-7-9-11-10-8-6-4-2/h3-11H2,1-2H3",
    "inchikey": "RSJKGSCJYJTIGS-UHFFFAOYSA-N",
    "molecular_formula": "C11H24",
    "compound_groups": [
        "alkanes",
        "normal paraffin",
        "paraffins"
    ],
    "properties": {
        "cetane_number": {
            "value": "81",
            "method": "20% Blend, CFR",
            "source": "NREL (2014)"
        },
        "ysi_unified": {
            "value": "64.7"
        },
        "kinematic_viscosity": {
            "value": "1.258"
        },
        "boiling_point": {
            "value": "195.9",
            "source": "Scifinder"
        },
        "flash_point": {
            "value": "65",
            "source": "Co-Optima DB"
        }
    }
}