{
    "cas": "615-29-2",
    "cid": 11991,
    "iupac_name": "4-methylhexan-3-ol",
    "canonical_smiles": "CCC(C)C(CC)O",
    "isomeric_smiles": "CCC(C)C(CC)O",
    "inchi": "1S/C7H16O/c1-4-6(3)7(8)5-2/h6-8H,4-5H2,1-3H3",
    "inchikey": "NZPGYIBESMMUFU-UHFFFAOYSA-N",
    "molecular_formula": "C7H16O",
    "properties": {
        "boiling_point": {
            "value": "148",
            "source": "Scifinder"
        }
    }
}