{
    "cas": "61788-34-9",
    "cid": 5364509,
    "iupac_name": "methyl (Z)-octadec-9-enoate",
    "canonical_smiles": "CCCCCCCCC=CCCCCCCCC(=O)OC",
    "isomeric_smiles": "CCCCCCCC/C=C\\CCCCCCCC(=O)OC",
    "inchi": "1S/C19H36O2/c1-3-4-5-6-7-8-9-10-11-12-13-14-15-16-17-18-19(20)21-2/h10-11H,3-9,12-18H2,1-2H3/b11-10-",
    "inchikey": "QYDYPVFESGNLHU-KHPPLWFESA-N",
    "molecular_formula": "C19H36O2",
    "compound_groups": [
        "esters",
        "olefins"
    ],
    "properties": {
        "cetane_number": {
            "value": "56",
            "method": "CFR",
            "source": "NREL (2014)"
        },
        "melting_point": {
            "value": "-19.9",
            "source": "Scifinder"
        }
    }
}