{
    "cas": "61788-35-0",
    "cid": 7844,
    "iupac_name": "but-1-ene",
    "canonical_smiles": "CCC=C",
    "isomeric_smiles": "CCC=C",
    "inchi": "1S/C4H8/c1-3-4-2/h3H,1,4H2,2H3",
    "inchikey": "VXNZUUAINFGPBY-UHFFFAOYSA-N",
    "molecular_formula": "C4H8",
    "properties": {
        "research_octane_number": {
            "value": "97.5",
            "source": "[1]"
        },
        "motor_octane_number": {
            "value": "79.9",
            "source": "[1]"
        },
        "octane_sensitivity": {
            "value": "17.6",
            "source": "[1]"
        },
        "autoignition_temp": {
            "value": "385",
            "source": "Co-Optima DB"
        },
        "boiling_point": {
            "value": "-6.5",
            "source": "Scifinder"
        },
        "flash_point": {
            "value": "-79",
            "source": "Co-Optima DB"
        },
        "melting_point": {
            "value": "-185",
            "source": "Scifinder"
        }
    },
    "compound_groups": []
}