{
    "cas": "625-65-0",
    "cid": 12260,
    "iupac_name": "2,4-dimethylpent-2-ene",
    "canonical_smiles": "CC(C)C=C(C)C",
    "isomeric_smiles": "CC(C)C=C(C)C",
    "inchi": "1S/C7H14/c1-6(2)5-7(3)4/h5-6H,1-4H3",
    "inchikey": "VVCFYASOGFVJFN-UHFFFAOYSA-N",
    "molecular_formula": "C7H14",
    "properties": {
        "research_octane_number": {
            "value": "100",
            "source": "[1]"
        },
        "motor_octane_number": {
            "value": "84.6",
            "source": "[1]"
        },
        "octane_sensitivity": {
            "value": "15.4",
            "source": "[1]"
        },
        "melting_point": {
            "value": "-127.7",
            "source": "Scifinder"
        }
    },
    "compound_groups": []
}