{
    "cas": "6286-43-7",
    "cid": 222962,
    "iupac_name": "cyclohexane-1,2,3-triol",
    "canonical_smiles": "C1CC(C(C(C1)O)O)O",
    "isomeric_smiles": "C1CC(C(C(C1)O)O)O",
    "inchi": "1S/C6H12O3/c7-4-2-1-3-5(8)6(4)9/h4-9H,1-3H2",
    "inchikey": "IZSANPWSFUSNMY-UHFFFAOYSA-N",
    "molecular_formula": "C6H12O3",
    "properties": {
        "melting_point": {
            "value": "108",
            "source": "Scifinder"
        }
    }
}