{
    "cas": "629-78-7",
    "cid": 12398,
    "iupac_name": "heptadecane",
    "canonical_smiles": "CCCCCCCCCCCCCCCCC",
    "isomeric_smiles": "CCCCCCCCCCCCCCCCC",
    "inchi": "1S/C17H36/c1-3-5-7-9-11-13-15-17-16-14-12-10-8-6-4-2/h3-17H2,1-2H3",
    "inchikey": "NDJKXXJCMXVBJW-UHFFFAOYSA-N",
    "molecular_formula": "C17H36",
    "compound_groups": [
        "alkanes",
        "normal paraffin"
    ],
    "properties": {
        "cetane_number": {
            "value": "105",
            "method": "Unknown",
            "source": "NREL (2014)"
        },
        "kinematic_viscosity": {
            "value": "3.5813"
        },
        "boiling_point": {
            "value": "302",
            "source": "Scifinder"
        },
        "flash_point": {
            "value": "149",
            "source": "Co-Optima DB"
        },
        "melting_point": {
            "value": "22",
            "source": "Scifinder"
        }
    }
}