{
    "cas": "63072-44-6",
    "cid": 11509,
    "iupac_name": "hexan-3-one",
    "canonical_smiles": "CCCC(=O)CC",
    "isomeric_smiles": "CCCC(=O)CC",
    "inchi": "1S/C6H12O/c1-3-5-6(7)4-2/h3-5H2,1-2H3",
    "inchikey": "PFCHFHIRKBAQGU-UHFFFAOYSA-N",
    "molecular_formula": "C6H12O",
    "compound_groups": [
        "saturated alkanone"
    ],
    "properties": {
        "ysi_unified": {
            "value": "25.5"
        },
        "research_octane_number": {
            "value": "101.9",
            "source": "[11]"
        },
        "motor_octane_number": {
            "value": "93.5",
            "source": "[11]"
        },
        "octane_sensitivity": {
            "value": "8.4",
            "source": "[11]"
        },
        "boiling_point": {
            "value": "123.5",
            "source": "Scifinder"
        },
        "flash_point": {
            "value": "15",
            "source": "Co-Optima DB"
        },
        "heat_of_vaporization": {
            "value": "41.8",
            "source": "Chickos and Acree, 2003"
        },
        "melting_point": {
            "value": "-55.5",
            "source": "Scifinder"
        }
    }
}