{
    "cas": "6423-06-9",
    "cid": 31260,
    "iupac_name": "3-methylbutan-1-ol",
    "canonical_smiles": "CC(C)CCO",
    "isomeric_smiles": "CC(C)CCO",
    "inchi": "1S/C5H12O/c1-5(2)3-4-6/h5-6H,3-4H2,1-2H3",
    "inchikey": "PHTQWCKDNZKARW-UHFFFAOYSA-N",
    "molecular_formula": "C5H12O",
    "compound_groups": [
        "alcohols"
    ],
    "properties": {
        "cetane_number": {
            "value": "13.1",
            "method": "IQT",
            "source": "NREL (2014)"
        },
        "ysi_unified": {
            "value": "31.9"
        },
        "research_octane_number": {
            "value": "98.8",
            "source": ""
        },
        "motor_octane_number": {
            "value": "86.8",
            "source": ""
        },
        "octane_sensitivity": {
            "value": "12",
            "source": ""
        },
        "autoignition_temp": {
            "value": "340",
            "source": "Co-Optima DB"
        },
        "flash_point": {
            "value": "43",
            "source": "Co-Optima DB"
        },
        "heat_of_vaporization": {
            "value": "48.48",
            "source": "13.3 kcal/mol Pubchem converted to kJ/mol"
        },
        "melting_point": {
            "value": "-117.2",
            "source": "The Merck Index"
        }
    }
}