{
    "cas": "67700-96-3",
    "cid": 957,
    "iupac_name": "octan-1-ol",
    "canonical_smiles": "CCCCCCCCO",
    "isomeric_smiles": "CCCCCCCCO",
    "inchi": "1S/C8H18O/c1-2-3-4-5-6-7-8-9/h9H,2-8H2,1H3",
    "inchikey": "KBPLFHHGFOOTCA-UHFFFAOYSA-N",
    "molecular_formula": "C8H18O",
    "compound_groups": [
        "alcohols"
    ],
    "properties": {
        "cetane_number": {
            "value": "39.1",
            "method": "CFR",
            "source": "NREL (2014)"
        },
        "ysi_unified": {
            "value": "41.1"
        },
        "autoignition_temp": {
            "value": "253",
            "source": "Co-Optima DB"
        },
        "boiling_point": {
            "value": "194",
            "source": "The Merck Index"
        },
        "flash_point": {
            "value": "81",
            "source": "Co-Optima DB"
        },
        "heat_of_vaporization": {
            "value": "70.98",
            "source": "Pub Chem"
        }
    }
}