{
    "cas": "67762-73-6",
    "cid": 6654,
    "iupac_name": "2,6,6-trimethylbicyclo[3.1.1]hept-2-ene",
    "canonical_smiles": "CC1=CCC2CC1C2(C)C",
    "isomeric_smiles": "CC1=CCC2CC1C2(C)C",
    "inchi": "1S/C10H16/c1-7-4-5-8-6-9(7)10(8,2)3/h4,8-9H,5-6H2,1-3H3",
    "inchikey": "GRWFGVWFFZKLTI-UHFFFAOYSA-N",
    "molecular_formula": "C10H16",
    "compound_groups": [
        "cycloalkenes",
        "cyclic olefin with a single c=c double bond within the otherwise saturated ring"
    ],
    "properties": {
        "cetane_number": {
            "value": "23.1",
            "method": "IQT",
            "source": "NREL (2014)"
        },
        "kinematic_viscosity": {
            "value": "1.2793"
        },
        "autoignition_temp": {
            "value": "255",
            "source": "Co-Optima DB"
        },
        "boiling_point": {
            "value": "155.5",
            "source": "Scifinder"
        },
        "flash_point": {
            "value": "32",
            "source": "Co-Optima DB"
        },
        "melting_point": {
            "value": "-62.5",
            "source": "Scifinder"
        }
    }
}