{
    "cas": "67-63-0",
    "cid": 3776,
    "iupac_name": "propan-2-ol",
    "canonical_smiles": "CC(C)O",
    "isomeric_smiles": "CC(C)O",
    "inchi": "1S/C3H8O/c1-3(2)4/h3-4H,1-2H3",
    "inchikey": "KFZMGEQAYNKOFK-UHFFFAOYSA-N",
    "molecular_formula": "C3H8O",
    "compound_groups": [
        "saturated alcohols",
        "alcohol",
        "alcohols"
    ],
    "properties": {
        "ysi_unified": {
            "value": "19.2"
        },
        "kinematic_viscosity": {
            "value": "1.8698"
        },
        "autoignition_temp": {
            "value": "399",
            "source": "Co-Optima DB"
        },
        "boiling_point": {
            "value": "82.5",
            "source": "Scifinder"
        },
        "flash_point": {
            "value": "12",
            "source": "Co-Optima DB"
        },
        "heat_of_vaporization": {
            "value": "44.7",
            "source": "Chickos and Acree, 2003. Enthalpies of Vaporization of Organic and Organometallic Compounds"
        }
    }
}