{
    "cas": "68916-43-8",
    "cid": 8842,
    "iupac_name": "3,7-dimethyloct-6-en-1-ol",
    "canonical_smiles": "CC(CCC=C(C)C)CCO",
    "isomeric_smiles": "CC(CCC=C(C)C)CCO",
    "inchi": "1S/C10H20O/c1-9(2)5-4-6-10(3)7-8-11/h5,10-11H,4,6-8H2,1-3H3",
    "inchikey": "QMVPMAAFGQKVCJ-UHFFFAOYSA-N",
    "molecular_formula": "C10H20O",
    "compound_groups": [
        "alcohols",
        "olefins"
    ],
    "properties": {
        "cetane_number": {
            "value": "25.6",
            "method": "IQT",
            "source": "Marquardt (2015)"
        },
        "flash_point": {
            "value": "99",
            "source": "Co-Optima DB"
        }
    }
}