{
    "cas": "693-65-2",
    "cid": 12743,
    "iupac_name": "1-pentoxypentane",
    "canonical_smiles": "CCCCCOCCCCC",
    "isomeric_smiles": "CCCCCOCCCCC",
    "inchi": "1S/C10H22O/c1-3-5-7-9-11-10-8-6-4-2/h3-10H2,1-2H3",
    "inchikey": "AOPDRZXCEAKHHW-UHFFFAOYSA-N",
    "molecular_formula": "C10H22O",
    "compound_groups": [
        "ethers"
    ],
    "properties": {
        "cetane_number": {
            "value": "111",
            "method": "IQT",
            "source": "NREL (2014)"
        },
        "ysi_unified": {
            "value": "49.8"
        },
        "flash_point": {
            "value": "57",
            "source": "Co-Optima DB"
        }
    }
}