{
    "cas": "763-32-6",
    "cid": 12988,
    "iupac_name": "3-methylbut-3-en-1-ol",
    "canonical_smiles": "CC(=C)CCO",
    "isomeric_smiles": "CC(=C)CCO",
    "inchi": "1S/C5H10O/c1-5(2)3-4-6/h6H,1,3-4H2,2H3",
    "inchikey": "CPJRRXSHAYUTGL-UHFFFAOYSA-N",
    "molecular_formula": "C5H10O",
    "properties": {
        "autoignition_temp": {
            "value": "345",
            "source": "Co-Optima DB"
        },
        "flash_point": {
            "value": "36",
            "source": "Co-Optima DB"
        }
    }
}