{
    "cas": "9009-62-5",
    "cid": 460,
    "iupac_name": "2-methoxyphenol",
    "canonical_smiles": "COC1=CC=CC=C1O",
    "isomeric_smiles": "COC1=CC=CC=C1O",
    "inchi": "1S/C7H8O2/c1-9-7-5-3-2-4-6(7)8/h2-5,8H,1H3",
    "inchikey": "LHGVFZTZFXWLCP-UHFFFAOYSA-N",
    "molecular_formula": "C7H8O2",
    "compound_groups": [
        "aromatics",
        "ethers"
    ],
    "properties": {
        "cetane_number": {
            "value": "19.3",
            "method": "IQT",
            "source": "NREL (2014)"
        },
        "autoignition_temp": {
            "value": "335",
            "source": "Co-Optima DB"
        },
        "boiling_point": {
            "value": "205",
            "source": "Scifinder"
        },
        "flash_point": {
            "value": "82",
            "source": "Co-Optima DB"
        },
        "melting_point": {
            "value": "32",
            "source": "Scifinder"
        }
    }
}