{
    "cas": "97-53-0",
    "cid": 3314,
    "iupac_name": "2-methoxy-4-prop-2-enylphenol",
    "canonical_smiles": "COC1=C(C=CC(=C1)CC=C)O",
    "isomeric_smiles": "COC1=C(C=CC(=C1)CC=C)O",
    "inchi": "1S/C10H12O2/c1-3-4-8-5-6-9(11)10(7-8)12-2/h3,5-7,11H,1,4H2,2H3",
    "inchikey": "RRAFCDWBNXTKKO-UHFFFAOYSA-N",
    "molecular_formula": "C10H12O2",
    "properties": {
        "flash_point": {
            "value": "112",
            "source": "Co-Optima DB"
        },
        "melting_point": {
            "value": "-9.1",
            "source": "Scifinder"
        }
    }
}