{
    "cas": "97-64-3",
    "cid": 7344,
    "iupac_name": "ethyl 2-hydroxypropanoate",
    "canonical_smiles": "CCOC(=O)C(C)O",
    "isomeric_smiles": "CCOC(=O)C(C)O",
    "inchi": "1S/C5H10O3/c1-3-8-5(7)4(2)6/h4,6H,3H2,1-2H3",
    "inchikey": "LZCLXQDLBQLTDK-UHFFFAOYSA-N",
    "molecular_formula": "C5H10O3",
    "properties": {
        "research_octane_number": {
            "value": "107.5",
            "source": ""
        },
        "motor_octane_number": {
            "value": "108.1",
            "source": ""
        },
        "octane_sensitivity": {
            "value": "-0.6",
            "source": ""
        },
        "flash_point": {
            "value": "46",
            "source": "Co-Optima DB"
        }
    },
    "compound_groups": []
}