{
    "cas": "97-62-1",
    "cid": 7342,
    "iupac_name": "ethyl 2-methylpropanoate",
    "canonical_smiles": "CCOC(=O)C(C)C",
    "isomeric_smiles": "CCOC(=O)C(C)C",
    "inchi": "1S/C6H12O2/c1-4-8-6(7)5(2)3/h5H,4H2,1-3H3",
    "inchikey": "WDAXFOBOLVPGLV-UHFFFAOYSA-N",
    "molecular_formula": "C6H12O2",
    "compound_groups": [
        "saturated esters"
    ],
    "properties": {
        "ysi_unified": {
            "value": "26.1"
        },
        "research_octane_number": {
            "value": "110.3",
            "source": "[11]"
        },
        "motor_octane_number": {
            "value": "109.5",
            "source": "[11]"
        },
        "octane_sensitivity": {
            "value": "0.8",
            "source": "[11]"
        },
        "boiling_point": {
            "value": "111",
            "source": "Chemspider"
        },
        "flash_point": {
            "value": "13",
            "source": "Co-Optima DB"
        },
        "heat_of_vaporization": {
            "value": "39.8",
            "source": "Chickos and Acree, 2003. Enthalpies of Vaporization of Organic and Organometallic Compounds"
        }
    }
}