{
    "cas": "99-86-5",
    "cid": 7462,
    "iupac_name": "1-methyl-4-propan-2-ylcyclohexa-1,3-diene",
    "canonical_smiles": "CC1=CC=C(CC1)C(C)C",
    "isomeric_smiles": "CC1=CC=C(CC1)C(C)C",
    "inchi": "1S/C10H16/c1-8(2)10-6-4-9(3)5-7-10/h4,6,8H,5,7H2,1-3H3",
    "inchikey": "YHQGMYUVUMAZJR-UHFFFAOYSA-N",
    "molecular_formula": "C10H16",
    "properties": {
        "boiling_point": {
            "value": "175",
            "source": "Scifinder"
        },
        "flash_point": {
            "value": "50",
            "source": "Co-Optima DB"
        }
    }
}