{
    "cas": "103-65-1",
    "cid": 7668,
    "iupac_name": "propylbenzene",
    "canonical_smiles": "CCCC1=CC=CC=C1",
    "isomeric_smiles": "CCCC1=CC=CC=C1",
    "inchi": "1S/C9H12/c1-2-6-9-7-4-3-5-8-9/h3-5,7-8H,2,6H2,1H3",
    "inchikey": "ODLMAHJVESYWTB-UHFFFAOYSA-N",
    "molecular_formula": "C9H12",
    "compound_groups": [
        "aromatics",
        "aromatic (single ring)"
    ],
    "properties": {
        "cetane_number": {
            "value": 16.0,
            "method": "80% Blend, IQT",
            "source": "NREL (2014)"
        },
        "ysi_unified": {
            "value": 235.7
        },
        "research_octane_number": {
            "value": 111.0,
            "source": "[9]"
        },
        "motor_octane_number": {
            "value": 98.7,
            "source": "[9]"
        },
        "octane_sensitivity": {
            "value": 12.3,
            "source": "[9]"
        },
        "kinematic_viscosity": {
            "value": 0.7966
        },
        "boiling_point": {
            "value": 159.2,
            "source": "Pubchem"
        },
        "flash_point": {
            "value": 47.0,
            "source": "Co-Optima DB"
        },
        "melting_point": {
            "value": -99.5,
            "source": "Pubchem"
        }
    }
}