{
    "cas": "105-54-4",
    "cid": 7762,
    "iupac_name": "ethyl butanoate",
    "canonical_smiles": "CCCC(=O)OCC",
    "isomeric_smiles": "CCCC(=O)OCC",
    "inchi": "1S/C6H12O2/c1-3-5-6(7)8-4-2/h3-5H2,1-2H3",
    "inchikey": "OBNCKNCVKJNDBV-UHFFFAOYSA-N",
    "molecular_formula": "C6H12O2",
    "compound_groups": [
        "saturated esters"
    ],
    "properties": {
        "ysi_unified": {
            "value": 25.5
        },
        "autoignition_temp": {
            "value": 463.0,
            "source": "Co-Optima DB"
        },
        "boiling_point": {
            "value": 121.0,
            "source": "Scifinder"
        },
        "flash_point": {
            "value": 26.0,
            "source": "Co-Optima DB"
        },
        "heat_of_vaporization": {
            "value": 42.9,
            "source": "Chickos and Acree, 2003. Enthalpies of Vaporization of Organic and Organometallic Compounds"
        },
        "melting_point": {
            "value": -97.0,
            "source": "CRC Handbook"
        }
    }
}