{
    "cas": "105-30-6",
    "cid": 7745,
    "iupac_name": "2-methylpentan-1-ol",
    "canonical_smiles": "CCCC(C)CO",
    "isomeric_smiles": "CCCC(C)CO",
    "inchi": "1S/C6H14O/c1-3-4-6(2)5-7/h6-7H,3-5H2,1-2H3",
    "inchikey": "PFNHSEQQEPMLNI-UHFFFAOYSA-N",
    "molecular_formula": "C6H14O",
    "compound_groups": [
        "saturated alcohols"
    ],
    "properties": {
        "ysi_unified": {
            "value": "35.8"
        },
        "boiling_point": {
            "value": "148.0",
            "source": "Scifinder"
        },
        "flash_point": {
            "value": "53",
            "source": "Co-Optima DB"
        }
    }
}