{
    "cas": "106-68-3",
    "cid": 246728,
    "iupac_name": "octan-3-one",
    "canonical_smiles": "CCCCCC(=O)CC",
    "isomeric_smiles": "CCCCCC(=O)CC",
    "inchi": "1S/C8H16O/c1-3-5-6-7-8(9)4-2/h3-7H2,1-2H3",
    "inchikey": "RHLVCLIPMVJYKS-UHFFFAOYSA-N",
    "molecular_formula": "C8H16O",
    "compound_groups": [
        "ketones"
    ],
    "properties": {
        "cetane_number": {
            "value": 36.0,
            "method": "IQT",
            "source": "NREL (2014)"
        },
        "ysi_unified": {
            "value": 36.0
        },
        "boiling_point": {
            "value": 167.5,
            "source": "Scifinder"
        },
        "flash_point": {
            "value": 43.0,
            "source": "Co-Optima DB"
        }
    }
}