{
    "cas": "1072-86-2",
    "cid": 92886,
    "iupac_name": "(1R,2R)-cyclohexane-1,2-diol",
    "canonical_smiles": "C1CCC(C(C1)O)O",
    "isomeric_smiles": "C1CC[C@H]([C@@H](C1)O)O",
    "inchi": "1S/C6H12O2/c7-5-3-1-2-4-6(5)8/h5-8H,1-4H2/t5-,6-/m1/s1",
    "inchikey": "PFURGBBHAOXLIO-PHDIDXHHSA-N",
    "molecular_formula": "C6H12O2",
    "properties": {
        "boiling_point": {
            "value": "233",
            "source": "Alfa Aesar"
        }
    }
}