{
    "cas": "108-83-8",
    "cid": 7958,
    "iupac_name": "2,6-dimethylheptan-4-one",
    "canonical_smiles": "CC(C)CC(=O)CC(C)C",
    "isomeric_smiles": "CC(C)CC(=O)CC(C)C",
    "inchi": "1S/C9H18O/c1-7(2)5-9(10)6-8(3)4/h7-8H,5-6H2,1-4H3",
    "inchikey": "PTTPXKJBFFKCEK-UHFFFAOYSA-N",
    "molecular_formula": "C9H18O",
    "compound_groups": [
        "saturated alkanone"
    ],
    "properties": {
        "ysi_unified": {
            "value": 55.8
        },
        "boiling_point": {
            "value": 168.0,
            "source": "Scifinder"
        },
        "flash_point": {
            "value": 47.0,
            "source": "Co-Optima DB"
        },
        "heat_of_vaporization": {
            "value": 39.89,
            "source": "Pub Chem"
        },
        "melting_point": {
            "value": -41.5,
            "source": "Scifinder"
        }
    }
}