{
    "cas": "108-68-9",
    "cid": 7948,
    "iupac_name": "3,5-dimethylphenol",
    "canonical_smiles": "CC1=CC(=CC(=C1)O)C",
    "isomeric_smiles": "CC1=CC(=CC(=C1)O)C",
    "inchi": "1S/C8H10O/c1-6-3-7(2)5-8(9)4-6/h3-5,9H,1-2H3",
    "inchikey": "TUAMRELNJMMDMT-UHFFFAOYSA-N",
    "molecular_formula": "C8H10O",
    "properties": {
        "flash_point": {
            "value": 109.0,
            "source": "Co-Optima DB"
        }
    }
}