{
    "cas": "108-10-1",
    "cid": 7909,
    "iupac_name": "4-methylpentan-2-one",
    "canonical_smiles": "CC(C)CC(=O)C",
    "isomeric_smiles": "CC(C)CC(=O)C",
    "inchi": "1S/C6H12O/c1-5(2)4-6(3)7/h5H,4H2,1-3H3",
    "inchikey": "NTIZESTWPVYFNL-UHFFFAOYSA-N",
    "molecular_formula": "C6H12O",
    "compound_groups": [
        "ketones",
        "ketone"
    ],
    "properties": {
        "cetane_number": {
            "value": 12.6,
            "method": "IQT",
            "source": "Marquardt (2015)"
        },
        "ysi_unified": {
            "value": 32.8
        },
        "kinematic_viscosity": {
            "value": 0.6432
        },
        "autoignition_temp": {
            "value": 448.0,
            "source": "Co-Optima DB"
        },
        "boiling_point": {
            "value": 115.8,
            "source": "Scifinder"
        },
        "flash_point": {
            "value": 23.0,
            "source": "Co-Optima DB"
        },
        "heat_of_vaporization": {
            "value": 41.8,
            "source": "Chickos and Acree, 2003"
        },
        "melting_point": {
            "value": -85.0,
            "source": "Scifinder"
        }
    }
}