{
    "cas": "108-93-0",
    "cid": 7966,
    "iupac_name": "cyclohexanol",
    "canonical_smiles": "C1CCC(CC1)O",
    "isomeric_smiles": "C1CCC(CC1)O",
    "inchi": "1S/C6H12O/c7-6-4-2-1-3-5-6/h6-7H,1-5H2",
    "inchikey": "HPXRVTGHNJAIIH-UHFFFAOYSA-N",
    "molecular_formula": "C6H12O",
    "compound_groups": [
        "alcohols",
        "cyclic"
    ],
    "properties": {
        "cetane_number": {
            "value": 16.3,
            "method": "IQT",
            "source": "Marquardt (2015)"
        },
        "ysi_unified": {
            "value": 42.3
        },
        "autoignition_temp": {
            "value": 300.0,
            "source": "Co-Optima DB"
        },
        "boiling_point": {
            "value": 161.08,
            "source": "Scifinder"
        },
        "flash_point": {
            "value": 68.0,
            "source": "Co-Optima DB"
        },
        "heat_of_vaporization": {
            "value": 62.01,
            "source": "Pub Chem"
        },
        "melting_point": {
            "value": 25.4,
            "source": "Scifinder"
        }
    }
}