{
    "cas": "109-87-5",
    "cid": 8020,
    "iupac_name": "dimethoxymethane",
    "canonical_smiles": "COCOC",
    "isomeric_smiles": "COCOC",
    "inchi": "1S/C3H8O2/c1-4-3-5-2/h3H2,1-2H3",
    "inchikey": "NKDDWNXOKDWJAK-UHFFFAOYSA-N",
    "molecular_formula": "C3H8O2",
    "compound_groups": [
        "ethers"
    ],
    "properties": {
        "cetane_number": {
            "value": 49.0,
            "method": "Blend",
            "source": "NREL (2014)"
        },
        "ysi_unified": {
            "value": 10.9
        },
        "flash_point": {
            "value": -18.0,
            "source": "Co-Optima DB"
        }
    }
}