{
    "cas": "1125-88-8",
    "cid": 62375,
    "iupac_name": "dimethoxymethylbenzene",
    "canonical_smiles": "COC(C1=CC=CC=C1)OC",
    "isomeric_smiles": "COC(C1=CC=CC=C1)OC",
    "inchi": "1S/C9H12O2/c1-10-9(11-2)8-6-4-3-5-7-8/h3-7,9H,1-2H3",
    "inchikey": "HEVMDQBCAHEHDY-UHFFFAOYSA-N",
    "molecular_formula": "C9H12O2",
    "compound_groups": [
        "aromatics",
        "acetals"
    ],
    "properties": {
        "cetane_number": {
            "value": 10.4,
            "method": "IQT",
            "source": "Marquardt (2015)"
        },
        "flash_point": {
            "value": 69.0,
            "source": "Co-Optima DB"
        }
    }
}