{
    "cas": "1173022-10-0",
    "cid": 174,
    "iupac_name": "ethane-1,2-diol",
    "canonical_smiles": "C(CO)O",
    "isomeric_smiles": "C(CO)O",
    "inchi": "1S/C2H6O2/c3-1-2-4/h3-4H,1-2H2",
    "inchikey": "LYCAIKOWRPUZTN-UHFFFAOYSA-N",
    "molecular_formula": "C2H6O2",
    "compound_groups": [
        "other multi-oxygen compounds"
    ],
    "properties": {
        "ysi_unified": {
            "value": "8.2"
        },
        "autoignition_temp": {
            "value": "398",
            "source": "Co-Optima DB"
        },
        "boiling_point": {
            "value": "197.3",
            "source": "Scifinder"
        },
        "flash_point": {
            "value": "111",
            "source": "Co-Optima DB"
        },
        "melting_point": {
            "value": "-13",
            "source": "Scifinder"
        }
    }
}