{
    "cas": "120-72-9",
    "cid": 798,
    "iupac_name": "1H-indole",
    "canonical_smiles": "C1=CC=C2C(=C1)C=CN2",
    "isomeric_smiles": "C1=CC=C2C(=C1)C=CN2",
    "inchi": "1S/C8H7N/c1-2-4-8-7(3-1)5-6-9-8/h1-6,9H",
    "inchikey": "SIKJAQJRHWYJAI-UHFFFAOYSA-N",
    "molecular_formula": "C8H7N",
    "properties": {
        "boiling_point": {
            "value": 254.0,
            "source": "Chemspider"
        },
        "melting_point": {
            "value": 52.0,
            "source": "Scifinder"
        }
    }
}