{
    "cas": "120-92-3",
    "cid": 8452,
    "iupac_name": "cyclopentanone",
    "canonical_smiles": "C1CCC(=O)C1",
    "isomeric_smiles": "C1CCC(=O)C1",
    "inchi": "1S/C5H8O/c6-5-3-1-2-4-5/h1-4H2",
    "inchikey": "BGTOWKSIORTVQH-UHFFFAOYSA-N",
    "molecular_formula": "C5H8O",
    "compound_groups": [
        "ketones",
        "cyclic"
    ],
    "properties": {
        "cetane_number": {
            "value": 9.0,
            "method": "IQT",
            "source": "NREL (2014)"
        },
        "ysi_unified": {
            "value": 22.0
        },
        "research_octane_number": {
            "value": 104.0,
            "source": "[1], [9]"
        },
        "motor_octane_number": {
            "value": 89.4,
            "source": "[1], [9]"
        },
        "octane_sensitivity": {
            "value": 14.6,
            "source": "[1], [9]"
        },
        "boiling_point": {
            "value": 130.6,
            "source": "Scifinder"
        },
        "flash_point": {
            "value": 30.0,
            "source": "Co-Optima DB"
        },
        "heat_of_vaporization": {
            "value": 42.4,
            "source": "Chickos and Acree, 2003. Enthalpies of Vaporization of Organic and Organometallic Compounds"
        },
        "melting_point": {
            "value": -51.3,
            "source": "Scifinder"
        }
    }
}