{
    "cas": "121-33-5",
    "cid": 1183,
    "iupac_name": "4-hydroxy-3-methoxybenzaldehyde",
    "canonical_smiles": "COC1=C(C=CC(=C1)C=O)O",
    "isomeric_smiles": "COC1=C(C=CC(=C1)C=O)O",
    "inchi": "1S/C8H8O3/c1-11-8-4-6(5-9)2-3-7(8)10/h2-5,10H,1H3",
    "inchikey": "MWOOGOJBHIARFG-UHFFFAOYSA-N",
    "molecular_formula": "C8H8O3",
    "properties": {
        "boiling_point": {
            "value": 284.5,
            "source": "Scifinder"
        },
        "flash_point": {
            "value": 153.0,
            "source": "Co-Optima DB"
        },
        "melting_point": {
            "value": 80.5,
            "source": "Scifinder"
        }
    }
}