{
    "cas": "123-31-9",
    "cid": 785,
    "iupac_name": "benzene-1,4-diol",
    "canonical_smiles": "C1=CC(=CC=C1O)O",
    "isomeric_smiles": "C1=CC(=CC=C1O)O",
    "inchi": "1S/C6H6O2/c7-5-1-2-6(8)4-3-5/h1-4,7-8H",
    "inchikey": "QIGBRXMKCJKVMJ-UHFFFAOYSA-N",
    "molecular_formula": "C6H6O2",
    "properties": {
        "boiling_point": {
            "value": "286",
            "source": "Scifinder"
        },
        "flash_point": {
            "value": "165",
            "source": "Co-Optima DB"
        }
    }
}