{
    "cas": "123-35-3",
    "cid": 31253,
    "iupac_name": "7-methyl-3-methylideneocta-1,6-diene",
    "canonical_smiles": "CC(=CCCC(=C)C=C)C",
    "isomeric_smiles": "CC(=CCCC(=C)C=C)C",
    "inchi": "1S/C10H16/c1-5-10(4)8-6-7-9(2)3/h5,7H,1,4,6,8H2,2-3H3",
    "inchikey": "UAHWPYUMFXYFJY-UHFFFAOYSA-N",
    "molecular_formula": "C10H16",
    "properties": {
        "boiling_point": {
            "value": 167.0,
            "source": "Scifinder"
        },
        "flash_point": {
            "value": 44.0,
            "source": "Co-Optima DB"
        }
    }
}