{
    "cas": "123-76-2",
    "cid": 11579,
    "iupac_name": "4-oxopentanoic acid",
    "canonical_smiles": "CC(=O)CCC(=O)O",
    "isomeric_smiles": "CC(=O)CCC(=O)O",
    "inchi": "1S/C5H8O3/c1-4(6)2-3-5(7)8/h2-3H2,1H3,(H,7,8)",
    "inchikey": "JOOXCMJARBKPKM-UHFFFAOYSA-N",
    "molecular_formula": "C5H8O3",
    "properties": {
        "boiling_point": {
            "value": 245.5,
            "source": "Scifinder"
        },
        "flash_point": {
            "value": 98.0,
            "source": "Co-Optima DB"
        }
    }
}