{
    "cas": "124-06-1",
    "cid": 31283,
    "iupac_name": "ethyl tetradecanoate",
    "canonical_smiles": "CCCCCCCCCCCCCC(=O)OCC",
    "isomeric_smiles": "CCCCCCCCCCCCCC(=O)OCC",
    "inchi": "1S/C16H32O2/c1-3-5-6-7-8-9-10-11-12-13-14-15-16(17)18-4-2/h3-15H2,1-2H3",
    "inchikey": "MMKRHZKQPFCLLS-UHFFFAOYSA-N",
    "molecular_formula": "C16H32O2",
    "compound_groups": [
        "esters"
    ],
    "properties": {
        "cetane_number": {
            "value": 67.0,
            "method": "CFR",
            "source": "NREL (2014)"
        },
        "boiling_point": {
            "value": 295.0,
            "source": "Scifinder"
        },
        "flash_point": {
            "value": 135.0,
            "source": "Co-Optima DB"
        },
        "melting_point": {
            "value": 12.3,
            "source": "Scifinder"
        }
    }
}