{
    "cas": "124-29-8",
    "cid": 2682,
    "iupac_name": "hexadecan-1-ol",
    "canonical_smiles": "CCCCCCCCCCCCCCCCO",
    "isomeric_smiles": "CCCCCCCCCCCCCCCCO",
    "inchi": "1S/C16H34O/c1-2-3-4-5-6-7-8-9-10-11-12-13-14-15-16-17/h17H,2-16H2,1H3",
    "inchikey": "BXWNKGSJHAJOGX-UHFFFAOYSA-N",
    "molecular_formula": "C16H34O",
    "compound_groups": [
        "alcohols"
    ],
    "properties": {
        "cetane_number": {
            "value": 68.0,
            "method": "Other Ignition Delay Method",
            "source": "NREL (2014)"
        },
        "boiling_point": {
            "value": 334.0,
            "source": "Scifinder"
        }
    }
}