{
    "cas": "13020-06-9",
    "cid": 6568,
    "iupac_name": "butan-2-ol",
    "canonical_smiles": "CCC(C)O",
    "isomeric_smiles": "CCC(C)O",
    "inchi": "1S/C4H10O/c1-3-4(2)5/h4-5H,3H2,1-2H3",
    "inchikey": "BTANRVKWQNVYAZ-UHFFFAOYSA-N",
    "molecular_formula": "C4H10O",
    "compound_groups": [
        "alcohols",
        "alcohol"
    ],
    "properties": {
        "cetane_number": {
            "value": 8.5,
            "method": "IQT",
            "source": "NREL (2014)"
        },
        "ysi_unified": {
            "value": 24.8
        },
        "research_octane_number": {
            "value": 107.0,
            "source": "[9]"
        },
        "motor_octane_number": {
            "value": 93.0,
            "source": "[9]"
        },
        "octane_sensitivity": {
            "value": 14.0,
            "source": "[9]"
        },
        "kinematic_viscosity": {
            "value": 2.5109
        },
        "autoignition_temp": {
            "value": 406.0,
            "source": "Co-Optima DB"
        },
        "boiling_point": {
            "value": 99.5,
            "source": "Scifinder"
        },
        "flash_point": {
            "value": 26.0,
            "source": "Co-Optima DB"
        },
        "heat_of_vaporization": {
            "value": 49.7,
            "source": "Chickos and Acree, 2003. Enthalpies of Vaporization of Organic and Organometallic Compounds"
        },
        "melting_point": {
            "value": -114.0,
            "source": "Scifinder"
        }
    }
}