{
    "cas": "1320-98-5",
    "cid": 12296,
    "iupac_name": "4-methylpentan-1-ol",
    "canonical_smiles": "CC(C)CCCO",
    "isomeric_smiles": "CC(C)CCCO",
    "inchi": "1S/C6H14O/c1-6(2)4-3-5-7/h6-7H,3-5H2,1-2H3",
    "inchikey": "PCWGTDULNUVNBN-UHFFFAOYSA-N",
    "molecular_formula": "C6H14O",
    "compound_groups": [
        "saturated alcohols"
    ],
    "properties": {
        "ysi_unified": {
            "value": "35.6"
        },
        "boiling_point": {
            "value": "151.9",
            "source": "Scifinder"
        },
        "flash_point": {
            "value": "57",
            "source": "Co-Optima DB"
        }
    }
}