{
    "cas": "1321-27-3",
    "cid": 6054,
    "iupac_name": "2-phenylethanol",
    "canonical_smiles": "C1=CC=C(C=C1)CCO",
    "isomeric_smiles": "C1=CC=C(C=C1)CCO",
    "inchi": "1S/C8H10O/c9-7-6-8-4-2-1-3-5-8/h1-5,9H,6-7H2",
    "inchikey": "WRMNZCZEMHIOCP-UHFFFAOYSA-N",
    "molecular_formula": "C8H10O",
    "compound_groups": [
        "aromatics",
        "alcohols"
    ],
    "properties": {
        "cetane_number": {
            "value": "8",
            "method": "IQT",
            "source": "NREL (2014)"
        },
        "ysi_unified": {
            "value": "207"
        },
        "autoignition_temp": {
            "value": "410",
            "source": "Co-Optima DB"
        },
        "boiling_point": {
            "value": "218.2",
            "source": "Scifinder"
        },
        "flash_point": {
            "value": "102",
            "source": "Co-Optima DB"
        },
        "melting_point": {
            "value": "-27",
            "source": "Scifinder"
        }
    }
}