{
    "cas": "13344-00-8",
    "cid": 232578,
    "iupac_name": "1,4-diethoxybutane",
    "canonical_smiles": "CCOCCCCOCC",
    "isomeric_smiles": "CCOCCCCOCC",
    "inchi": "1S/C8H18O2/c1-3-9-7-5-6-8-10-4-2/h3-8H2,1-2H3",
    "inchikey": "IIHAWQOFHTYWGM-UHFFFAOYSA-N",
    "molecular_formula": "C8H18O2",
    "compound_groups": [
        "ethers"
    ],
    "properties": {
        "cetane_number": {
            "value": "97",
            "method": "Blend (Method?)",
            "source": "NREL (2014)"
        },
        "flash_point": {
            "value": "48",
            "source": "Co-Optima DB"
        }
    }
}