{
    "cas": "13352-75-5",
    "cid": 58099122,
    "iupac_name": "methoxy(methoxymethoxymethoxymethoxy)methane",
    "canonical_smiles": "COCOCOCOCOC",
    "isomeric_smiles": "COCOCOCOCOC",
    "inchi": "1S/C6H14O5/c1-7-3-9-5-11-6-10-4-8-2/h3-6H2,1-2H3",
    "inchikey": "ZWVWZUHELWJLMG-UHFFFAOYSA-N",
    "molecular_formula": "C6H14O5",
    "properties": {
        "flash_point": {
            "value": 88.0,
            "source": "Co-Optima DB"
        }
    }
}