{
    "cas": "13352-76-6",
    "cid": 58099142,
    "iupac_name": "methoxy(methoxymethoxymethoxymethoxymethoxy)methane",
    "canonical_smiles": "COCOCOCOCOCOC",
    "isomeric_smiles": "COCOCOCOCOCOC",
    "inchi": "1S/C7H16O6/c1-8-3-10-5-12-7-13-6-11-4-9-2/h3-7H2,1-2H3",
    "inchikey": "VBVRQNRIUBCFDL-UHFFFAOYSA-N",
    "molecular_formula": "C7H16O6",
    "properties": {
        "flash_point": {
            "value": 115.0,
            "source": "Co-Optima DB"
        }
    }
}