{
    "cas": "140708-60-7",
    "cid": 102846,
    "iupac_name": "3-methylhexan-2-one",
    "canonical_smiles": "CCCC(C)C(=O)C",
    "isomeric_smiles": "CCCC(C)C(=O)C",
    "inchi": "1S/C7H14O/c1-4-5-6(2)7(3)8/h6H,4-5H2,1-3H3",
    "inchikey": "GYWYASONLSQZBB-UHFFFAOYSA-N",
    "molecular_formula": "C7H14O",
    "properties": {
        "boiling_point": {
            "value": "137.0",
            "source": "Scifinder"
        }
    }
}