{
    "cas": "142-82-5",
    "cid": 8900,
    "iupac_name": "heptane",
    "canonical_smiles": "CCCCCCC",
    "isomeric_smiles": "CCCCCCC",
    "inchi": "1S/C7H16/c1-3-5-7-6-4-2/h3-7H2,1-2H3",
    "inchikey": "IMNFDUFMRHMDMM-UHFFFAOYSA-N",
    "molecular_formula": "C7H16",
    "compound_groups": [
        "alkanes",
        "normal paraffin",
        "heptanes"
    ],
    "properties": {
        "cetane_number": {
            "value": "52.8",
            "method": "IQT",
            "source": "Marquardt (2015)"
        },
        "ysi_unified": {
            "value": "36"
        },
        "research_octane_number": {
            "value": "0",
            "source": "[1]"
        },
        "motor_octane_number": {
            "value": "0",
            "source": "[1]"
        },
        "octane_sensitivity": {
            "value": "0",
            "source": "[1]"
        },
        "kinematic_viscosity": {
            "value": "0.505"
        },
        "autoignition_temp": {
            "value": "223",
            "source": "Co-Optima DB"
        },
        "boiling_point": {
            "value": "98",
            "source": "Alfa Aesar"
        },
        "flash_point": {
            "value": "-4",
            "source": "Co-Optima DB"
        },
        "heat_of_vaporization": {
            "value": "36.57",
            "source": "CRC Handbook"
        },
        "melting_point": {
            "value": "-91",
            "source": "Alfa Aesar"
        }
    }
}