{
    "cas": "162507-72-4",
    "cid": 15345978,
    "iupac_name": "2,3-bis[(2-methylpropan-2-yl)oxy]propan-1-ol",
    "canonical_smiles": "CC(C)(C)OCC(CO)OC(C)(C)C",
    "isomeric_smiles": "CC(C)(C)OCC(CO)OC(C)(C)C",
    "inchi": "1S/C11H24O3/c1-10(2,3)13-8-9(7-12)14-11(4,5)6/h9,12H,7-8H2,1-6H3",
    "inchikey": "GHMGXRWYTHMCJQ-UHFFFAOYSA-N",
    "molecular_formula": "C11H24O3",
    "properties": {
        "boiling_point": {
            "value": 223.0,
            "source": "ASTM D86 FBP (SwRI)"
        }
    }
}