{
    "cas": "1629-60-3",
    "cid": 15395,
    "iupac_name": "hex-1-en-3-one",
    "canonical_smiles": "CCCC(=O)C=C",
    "isomeric_smiles": "CCCC(=O)C=C",
    "inchi": "1S/C6H10O/c1-3-5-6(7)4-2/h4H,2-3,5H2,1H3",
    "inchikey": "JTHNLKXLWOXOQK-UHFFFAOYSA-N",
    "molecular_formula": "C6H10O",
    "properties": {
        "flash_point": {
            "value": "22",
            "source": "Co-Optima DB"
        }
    }
}