{
    "cas": "1629-58-9",
    "cid": 15394,
    "iupac_name": "pent-1-en-3-one",
    "canonical_smiles": "CCC(=O)C=C",
    "isomeric_smiles": "CCC(=O)C=C",
    "inchi": "1S/C5H8O/c1-3-5(6)4-2/h3H,1,4H2,2H3",
    "inchikey": "JLIDVCMBCGBIEY-UHFFFAOYSA-N",
    "molecular_formula": "C5H8O",
    "properties": {
        "boiling_point": {
            "value": 103.0,
            "source": "Scifinder"
        },
        "flash_point": {
            "value": -10.0,
            "source": "Co-Optima DB"
        }
    }
}