{
    "cas": "1640-89-7",
    "cid": 15431,
    "iupac_name": "ethylcyclopentane",
    "canonical_smiles": "CCC1CCCC1",
    "isomeric_smiles": "CCC1CCCC1",
    "inchi": "1S/C7H14/c1-2-7-5-3-4-6-7/h7H,2-6H2,1H3",
    "inchikey": "IFTRQJLVEBNKJK-UHFFFAOYSA-N",
    "molecular_formula": "C7H14",
    "compound_groups": [
        "cyclic alkanes",
        "naphthene - major structure is saturated ring",
        "cyclopentanes"
    ],
    "properties": {
        "ysi_unified": {
            "value": "58.6"
        },
        "research_octane_number": {
            "value": "67.2",
            "source": "[1]"
        },
        "motor_octane_number": {
            "value": "61.2",
            "source": "[1]"
        },
        "octane_sensitivity": {
            "value": "6",
            "source": "[1]"
        },
        "kinematic_viscosity": {
            "value": "0.6199"
        },
        "boiling_point": {
            "value": "103.5",
            "source": "Scifinder"
        },
        "flash_point": {
            "value": "16",
            "source": "Co-Optima DB"
        }
    }
}