{
    "cas": "1678-92-8",
    "cid": 15505,
    "iupac_name": "propylcyclohexane",
    "canonical_smiles": "CCCC1CCCCC1",
    "isomeric_smiles": "CCCC1CCCCC1",
    "inchi": "1S/C9H18/c1-2-6-9-7-4-3-5-8-9/h9H,2-8H2,1H3",
    "inchikey": "DEDZSLCZHWTGOR-UHFFFAOYSA-N",
    "molecular_formula": "C9H18",
    "compound_groups": [
        "naphthenes",
        "naphthene - major structure is saturated ring",
        "cyclohexanes"
    ],
    "properties": {
        "cetane_number": {
            "value": 52.0,
            "method": "Unknown",
            "source": "Creton (2011)"
        },
        "ysi_unified": {
            "value": 69.2
        },
        "research_octane_number": {
            "value": 17.8,
            "source": "[1]"
        },
        "motor_octane_number": {
            "value": 14.0,
            "source": "[1]"
        },
        "octane_sensitivity": {
            "value": 3.8,
            "source": "[1]"
        },
        "kinematic_viscosity": {
            "value": 1.001
        },
        "boiling_point": {
            "value": 156.7,
            "source": "Scifinder"
        },
        "flash_point": {
            "value": 35.0,
            "source": "Co-Optima DB"
        },
        "melting_point": {
            "value": -94.9,
            "source": "Scifinder"
        }
    }
}