{
    "cas": "170082-17-4",
    "cid": 887,
    "iupac_name": "methanol",
    "canonical_smiles": "CO",
    "isomeric_smiles": "CO",
    "inchi": "1S/CH4O/c1-2/h2H,1H3",
    "inchikey": "OKKJLVBELUTLKV-UHFFFAOYSA-N",
    "molecular_formula": "CH4O",
    "compound_groups": [
        "alcohols",
        "alcohol"
    ],
    "properties": {
        "cetane_number": {
            "value": 5.0,
            "method": "Unknown",
            "source": "NREL (2014)"
        },
        "ysi_unified": {
            "value": 6.6
        },
        "research_octane_number": {
            "value": 109.0,
            "source": "[11]"
        },
        "motor_octane_number": {
            "value": 89.0,
            "source": "[11]"
        },
        "octane_sensitivity": {
            "value": 20.0,
            "source": "[11]"
        },
        "kinematic_viscosity": {
            "value": 0.5942
        },
        "flash_point": {
            "value": 11.0,
            "source": "Co-Optima DB"
        }
    }
}