{
    "cas": "17042-16-9",
    "cid": 86501,
    "iupac_name": "4-methylhexan-3-one",
    "canonical_smiles": "CCC(C)C(=O)CC",
    "isomeric_smiles": "CCC(C)C(=O)CC",
    "inchi": "1S/C7H14O/c1-4-6(3)7(8)5-2/h6H,4-5H2,1-3H3",
    "inchikey": "ULPMRIXXHGUZFA-UHFFFAOYSA-N",
    "molecular_formula": "C7H14O",
    "properties": {
        "boiling_point": {
            "value": "134.5",
            "source": "Scifinder"
        }
    }
}