{
    "cas": "17300-24-2",
    "cid": 11558,
    "iupac_name": "2-methyl-2H-furan-5-one",
    "canonical_smiles": "CC1C=CC(=O)O1",
    "isomeric_smiles": "CC1C=CC(=O)O1",
    "inchi": "1S/C5H6O2/c1-4-2-3-5(6)7-4/h2-4H,1H3",
    "inchikey": "BGLUXFNVVSVEET-UHFFFAOYSA-N",
    "molecular_formula": "C5H6O2",
    "properties": {
        "boiling_point": {
            "value": 209.0,
            "source": "Scifinder"
        }
    }
}