{
    "cas": "17301-94-9",
    "cid": 28455,
    "iupac_name": "4-methylnonane",
    "canonical_smiles": "CCCCCC(C)CCC",
    "isomeric_smiles": "CCCCCC(C)CCC",
    "inchi": "1S/C10H22/c1-4-6-7-9-10(3)8-5-2/h10H,4-9H2,1-3H3",
    "inchikey": "IALRSQMWHFKJJA-UHFFFAOYSA-N",
    "molecular_formula": "C10H22",
    "properties": {
        "flash_point": {
            "value": "44",
            "source": "Co-Optima DB"
        }
    }
}