{
    "cas": "18729-48-1",
    "cid": 86785,
    "iupac_name": "3-methylcyclopentan-1-ol",
    "canonical_smiles": "CC1CCC(C1)O",
    "isomeric_smiles": "CC1CCC(C1)O",
    "inchi": "1S/C6H12O/c1-5-2-3-6(7)4-5/h5-7H,2-4H2,1H3",
    "inchikey": "VEALHWXMCIRWGC-UHFFFAOYSA-N",
    "molecular_formula": "C6H12O",
    "properties": {
        "flash_point": {
            "value": "55",
            "source": "Co-Optima DB"
        }
    }
}