{
    "cas": "2216-33-3",
    "cid": 16664,
    "iupac_name": "3-methyloctane",
    "canonical_smiles": "CCCCCC(C)CC",
    "isomeric_smiles": "CCCCCC(C)CC",
    "inchi": "1S/C9H20/c1-4-6-7-8-9(3)5-2/h9H,4-8H2,1-3H3",
    "inchikey": "SEEOMASXHIJCDV-UHFFFAOYSA-N",
    "molecular_formula": "C9H20",
    "compound_groups": [
        "paraffin (non-normal)",
        "alkanes"
    ],
    "properties": {
        "kinematic_viscosity": {
            "value": 0.6514
        },
        "boiling_point": {
            "value": 144.2,
            "source": "Scifinder"
        },
        "flash_point": {
            "value": 32.0,
            "source": "Co-Optima DB"
        },
        "melting_point": {
            "value": -107.6,
            "source": "Scifinder"
        }
    }
}