{
    "cas": "22564-99-4",
    "cid": 6549,
    "iupac_name": "3,7-dimethylocta-1,6-dien-3-ol",
    "canonical_smiles": "CC(=CCCC(C)(C=C)O)C",
    "isomeric_smiles": "CC(=CCCC(C)(C=C)O)C",
    "inchi": "1S/C10H18O/c1-5-10(4,11)8-6-7-9(2)3/h5,7,11H,1,6,8H2,2-4H3",
    "inchikey": "CDOSHBSSFJOMGT-UHFFFAOYSA-N",
    "molecular_formula": "C10H18O",
    "compound_groups": [
        "alcohols",
        "olefins"
    ],
    "properties": {
        "cetane_number": {
            "value": "16.5",
            "method": "IQT",
            "source": "NREL (2014)"
        },
        "flash_point": {
            "value": "75",
            "source": "Co-Optima DB"
        }
    }
}