{
    "cas": "25398-39-4",
    "cid": 735940,
    "iupac_name": "(E)-4-(furan-2-yl)but-3-en-2-one",
    "canonical_smiles": "CC(=O)C=CC1=CC=CO1",
    "isomeric_smiles": "CC(=O)/C=C/C1=CC=CO1",
    "inchi": "1S/C8H8O2/c1-7(9)4-5-8-3-2-6-10-8/h2-6H,1H3/b5-4+",
    "inchikey": "GBKGJMYPQZODMI-SNAWJCMRSA-N",
    "molecular_formula": "C8H8O2",
    "properties": {
        "melting_point": {
            "value": 39.5,
            "source": "Scifinder"
        }
    }
}