{
    "cas": "26103-97-9",
    "cid": 441269,
    "iupac_name": "3-methyl-1-(2,4,6-trihydroxyphenyl)butan-1-one",
    "canonical_smiles": "CC(C)CC(=O)C1=C(C=C(C=C1O)O)O",
    "isomeric_smiles": "CC(C)CC(=O)C1=C(C=C(C=C1O)O)O",
    "inchi": "1S/C11H14O4/c1-6(2)3-8(13)11-9(14)4-7(12)5-10(11)15/h4-6,12,14-15H,3H2,1-2H3",
    "inchikey": "VSDWHZGJGWMIRN-UHFFFAOYSA-N",
    "molecular_formula": "C11H14O4",
    "properties": {
        "melting_point": {
            "value": 144.5,
            "source": "Scifinder"
        }
    }
}