{
    "cas": "26161-42-2",
    "cid": 11039,
    "iupac_name": "methyl 2-methylpropanoate",
    "canonical_smiles": "CC(C)C(=O)OC",
    "isomeric_smiles": "CC(C)C(=O)OC",
    "inchi": "1S/C5H10O2/c1-4(2)5(6)7-3/h4H,1-3H3",
    "inchikey": "BHIWKHZACMWKOJ-UHFFFAOYSA-N",
    "molecular_formula": "C5H10O2",
    "compound_groups": [
        "saturated esters"
    ],
    "properties": {
        "ysi_unified": {
            "value": 22.2
        },
        "boiling_point": {
            "value": 92.5,
            "source": "Scifinder"
        },
        "flash_point": {
            "value": 12.0,
            "source": "Co-Optima DB"
        },
        "heat_of_vaporization": {
            "value": 37.3,
            "source": "Chickos and Acree, 2003. Enthalpies of Vaporization of Organic and Organometallic Compounds"
        }
    }
}