{
    "cas": "26271-33-0",
    "cid": 440991,
    "iupac_name": "(3-hydroxyphenyl)-(2,4,6-trihydroxyphenyl)methanone",
    "canonical_smiles": "C1=CC(=CC(=C1)O)C(=O)C2=C(C=C(C=C2O)O)O",
    "isomeric_smiles": "C1=CC(=CC(=C1)O)C(=O)C2=C(C=C(C=C2O)O)O",
    "inchi": "1S/C13H10O5/c14-8-3-1-2-7(4-8)13(18)12-10(16)5-9(15)6-11(12)17/h1-6,14-17H",
    "inchikey": "QWRYPHZJTWQLFX-UHFFFAOYSA-N",
    "molecular_formula": "C13H10O5",
    "properties": {
        "melting_point": {
            "value": 246.0,
            "source": "Scifinder"
        }
    }
}