{
    "cas": "2628-17-3",
    "cid": 62453,
    "iupac_name": "4-ethenylphenol",
    "canonical_smiles": "C=CC1=CC=C(C=C1)O",
    "isomeric_smiles": "C=CC1=CC=C(C=C1)O",
    "inchi": "1S/C8H8O/c1-2-7-3-5-8(9)6-4-7/h2-6,9H,1H2",
    "inchikey": "FUGYGGDSWSUORM-UHFFFAOYSA-N",
    "molecular_formula": "C8H8O",
    "properties": {
        "flash_point": {
            "value": 100.0,
            "source": "Co-Optima DB"
        }
    }
}