{
    "cas": "2639-63-6",
    "cid": 17525,
    "iupac_name": "hexyl butanoate",
    "canonical_smiles": "CCCCCCOC(=O)CCC",
    "isomeric_smiles": "CCCCCCOC(=O)CCC",
    "inchi": "1S/C10H20O2/c1-3-5-6-7-9-12-10(11)8-4-2/h3-9H2,1-2H3",
    "inchikey": "XAPCMTMQBXLDBB-UHFFFAOYSA-N",
    "molecular_formula": "C10H20O2",
    "compound_groups": [
        "esters"
    ],
    "properties": {
        "cetane_number": {
            "value": 29.0,
            "method": "IQT",
            "source": "NREL (2014)"
        },
        "boiling_point": {
            "value": 208.0,
            "source": "Scifinder"
        },
        "flash_point": {
            "value": 81.0,
            "source": "Co-Optima DB"
        },
        "melting_point": {
            "value": -78.0,
            "source": "Scifinder"
        }
    }
}