{
    "cas": "26982-54-7",
    "cid": 5054,
    "iupac_name": "benzene-1,3-diol",
    "canonical_smiles": "C1=CC(=CC(=C1)O)O",
    "isomeric_smiles": "C1=CC(=CC(=C1)O)O",
    "inchi": "1S/C6H6O2/c7-5-2-1-3-6(8)4-5/h1-4,7-8H",
    "inchikey": "GHMLBKRAJCXXBS-UHFFFAOYSA-N",
    "molecular_formula": "C6H6O2",
    "properties": {
        "boiling_point": {
            "value": "280",
            "source": "Scifinder"
        },
        "flash_point": {
            "value": "127",
            "source": "Co-Optima DB"
        }
    }
}