{
    "cas": "27137-41-3",
    "cid": 10797,
    "iupac_name": "2-methylfuran",
    "canonical_smiles": "CC1=CC=CO1",
    "isomeric_smiles": "CC1=CC=CO1",
    "inchi": "1S/C5H6O/c1-5-3-2-4-6-5/h2-4H,1H3",
    "inchikey": "VQKFNUFAXTZWDK-UHFFFAOYSA-N",
    "molecular_formula": "C5H6O",
    "compound_groups": [
        "cyclic ethers",
        "aromatics"
    ],
    "properties": {
        "cetane_number": {
            "value": "9",
            "method": "IQT",
            "source": "NREL (2014)"
        },
        "research_octane_number": {
            "value": "103",
            "source": "[6]"
        },
        "motor_octane_number": {
            "value": "86",
            "source": "[6]"
        },
        "octane_sensitivity": {
            "value": "17",
            "source": "[6]"
        },
        "flash_point": {
            "value": "-22",
            "source": "Co-Optima DB"
        },
        "melting_point": {
            "value": "-87.5",
            "source": "Scifinder"
        }
    }
}