{
    "cas": "28324-25-6",
    "cid": 8064,
    "iupac_name": "butane-1,4-diol",
    "canonical_smiles": "C(CCO)CO",
    "isomeric_smiles": "C(CCO)CO",
    "inchi": "1S/C4H10O2/c5-3-1-2-4-6/h5-6H,1-4H2",
    "inchikey": "WERYXYBDKMZEQL-UHFFFAOYSA-N",
    "molecular_formula": "C4H10O2",
    "properties": {
        "autoignition_temp": {
            "value": "350",
            "source": "Co-Optima DB"
        },
        "boiling_point": {
            "value": "230",
            "source": "Scifinder"
        },
        "flash_point": {
            "value": "134",
            "source": "Co-Optima DB"
        },
        "heat_of_vaporization": {
            "value": "56.5",
            "source": "Pub Chem"
        },
        "melting_point": {
            "value": "20.1",
            "source": "Scifinder"
        }
    }
}