{
    "cas": "28929-85-3",
    "cid": 10976,
    "iupac_name": "heptan-2-ol",
    "canonical_smiles": "CCCCCC(C)O",
    "isomeric_smiles": "CCCCCC(C)O",
    "inchi": "1S/C7H16O/c1-3-4-5-6-7(2)8/h7-8H,3-6H2,1-2H3",
    "inchikey": "CETWDUZRCINIHU-UHFFFAOYSA-N",
    "molecular_formula": "C7H16O",
    "compound_groups": [
        "alcohols"
    ],
    "properties": {
        "cetane_number": {
            "value": "25",
            "method": "IQT",
            "source": "NREL (2014)"
        },
        "ysi_unified": {
            "value": "39.4"
        },
        "boiling_point": {
            "value": "159",
            "source": "Scifinder"
        },
        "flash_point": {
            "value": "60",
            "source": "Co-Optima DB"
        }
    }
}