{
    "cas": "30637-87-7",
    "cid": 11583,
    "iupac_name": "hexan-2-one",
    "canonical_smiles": "CCCCC(=O)C",
    "isomeric_smiles": "CCCCC(=O)C",
    "inchi": "1S/C6H12O/c1-3-4-5-6(2)7/h3-5H2,1-2H3",
    "inchikey": "QQZOPKMRPOGIEB-UHFFFAOYSA-N",
    "molecular_formula": "C6H12O",
    "compound_groups": [
        "saturated alkanone"
    ],
    "properties": {
        "ysi_unified": {
            "value": 25.6
        },
        "autoignition_temp": {
            "value": 423.0,
            "source": "Co-Optima DB"
        },
        "boiling_point": {
            "value": 127.6,
            "source": "Scifinder"
        },
        "flash_point": {
            "value": 23.0,
            "source": "Co-Optima DB"
        },
        "heat_of_vaporization": {
            "value": 36.05,
            "source": "Kirk-Othmer, Pubchem"
        },
        "melting_point": {
            "value": -55.5,
            "source": "Scifinder"
        }
    }
}