{
    "cas": "30899-19-5",
    "cid": 6276,
    "iupac_name": "pentan-1-ol",
    "canonical_smiles": "CCCCCO",
    "isomeric_smiles": "CCCCCO",
    "inchi": "1S/C5H12O/c1-2-3-4-5-6/h6H,2-5H2,1H3",
    "inchikey": "AMQJEAYHLZJPGS-UHFFFAOYSA-N",
    "molecular_formula": "C5H12O",
    "compound_groups": [
        "alcohols",
        "alcohol"
    ],
    "properties": {
        "cetane_number": {
            "value": 18.2,
            "method": "CFR",
            "source": "NREL (2014)"
        },
        "ysi_unified": {
            "value": 25.4
        },
        "kinematic_viscosity": {
            "value": 3.0666
        },
        "boiling_point": {
            "value": 137.5,
            "source": "The Merck Index"
        },
        "flash_point": {
            "value": 33.0,
            "source": "Co-Optima DB"
        },
        "heat_of_vaporization": {
            "value": 44.83,
            "source": "Pubchem"
        },
        "melting_point": {
            "value": -79.0,
            "source": "The Merck Index"
        }
    }
}