{
    "cas": "31387-92-5",
    "cid": 31285,
    "iupac_name": "non-1-ene",
    "canonical_smiles": "CCCCCCCC=C",
    "isomeric_smiles": "CCCCCCCC=C",
    "inchi": "1S/C9H18/c1-3-5-7-9-8-6-4-2/h3H,1,4-9H2,2H3",
    "inchikey": "JRZJOMJEPLMPRA-UHFFFAOYSA-N",
    "molecular_formula": "C9H18",
    "compound_groups": [
        "olefins",
        "olefin (alkene) with single c=c double bond"
    ],
    "properties": {
        "cetane_number": {
            "value": 51.0,
            "method": "Unknown",
            "source": "NREL (2014)"
        },
        "ysi_unified": {
            "value": 64.4
        },
        "kinematic_viscosity": {
            "value": 0.7009
        },
        "boiling_point": {
            "value": 146.9,
            "source": "Scifinder"
        },
        "flash_point": {
            "value": 24.0,
            "source": "Co-Optima DB"
        },
        "melting_point": {
            "value": -81.3,
            "source": "Scifinder"
        }
    }
}