{
    "cas": "33969-59-4",
    "cid": 12178,
    "iupac_name": "hexan-3-ol",
    "canonical_smiles": "CCCC(CC)O",
    "isomeric_smiles": "CCCC(CC)O",
    "inchi": "1S/C6H14O/c1-3-5-6(7)4-2/h6-7H,3-5H2,1-2H3",
    "inchikey": "ZOCHHNOQQHDWHG-UHFFFAOYSA-N",
    "molecular_formula": "C6H14O",
    "compound_groups": [
        "saturated alcohols"
    ],
    "properties": {
        "ysi_unified": {
            "value": 33.9
        },
        "boiling_point": {
            "value": 134.8,
            "source": "Scifinder"
        },
        "flash_point": {
            "value": 42.0,
            "source": "Co-Optima DB"
        }
    }
}