{
    "cas": "33-51-2",
    "cid": 7041,
    "iupac_name": "2,6-dimethoxyphenol",
    "canonical_smiles": "COC1=C(C(=CC=C1)OC)O",
    "isomeric_smiles": "COC1=C(C(=CC=C1)OC)O",
    "inchi": "1S/C8H10O3/c1-10-6-4-3-5-7(11-2)8(6)9/h3-5,9H,1-2H3",
    "inchikey": "KLIDCXVFHGNTTM-UHFFFAOYSA-N",
    "molecular_formula": "C8H10O3",
    "compound_groups": [
        "aromatics",
        "ethers"
    ],
    "properties": {
        "cetane_number": {
            "value": "26",
            "method": "Unknown",
            "source": "McCormick (2015)"
        },
        "boiling_point": {
            "value": "261",
            "source": "Scifinder"
        },
        "flash_point": {
            "value": "140",
            "source": "Co-Optima DB"
        }
    }
}