{
    "cas": "3494-45-9",
    "cid": 7731,
    "iupac_name": "1-methoxy-4-methylbenzene",
    "canonical_smiles": "CC1=CC=C(C=C1)OC",
    "isomeric_smiles": "CC1=CC=C(C=C1)OC",
    "inchi": "1S/C8H10O/c1-7-3-5-8(9-2)6-4-7/h3-6H,1-2H3",
    "inchikey": "CHLICZRVGGXEOD-UHFFFAOYSA-N",
    "molecular_formula": "C8H10O",
    "compound_groups": [
        "aromatics",
        "ethers"
    ],
    "properties": {
        "cetane_number": {
            "value": 7.4,
            "method": "IQT",
            "source": "NREL (2014)"
        },
        "ysi_unified": {
            "value": 123.0
        },
        "research_octane_number": {
            "value": 103.5,
            "source": ""
        },
        "motor_octane_number": {
            "value": 92.0,
            "source": ""
        },
        "octane_sensitivity": {
            "value": 11.5,
            "source": ""
        },
        "flash_point": {
            "value": 59.0,
            "source": "Co-Optima DB"
        },
        "heat_of_vaporization": {
            "value": 46.0,
            "source": "Chickos and Acree 2003"
        },
        "melting_point": {
            "value": -32.0,
            "source": "Scifinder"
        }
    }
}