{
    "cas": "35007-63-7",
    "cid": 262,
    "iupac_name": "butane-2,3-diol",
    "canonical_smiles": "CC(C(C)O)O",
    "isomeric_smiles": "CC(C(C)O)O",
    "inchi": "1S/C4H10O2/c1-3(5)4(2)6/h3-6H,1-2H3",
    "inchikey": "OWBTYPJTUOEWEK-UHFFFAOYSA-N",
    "molecular_formula": "C4H10O2",
    "properties": {
        "autoignition_temp": {
            "value": 402.0,
            "source": "Co-Optima DB"
        },
        "boiling_point": {
            "value": 182.0,
            "source": "Scifinder"
        },
        "flash_point": {
            "value": 85.0,
            "source": "Co-Optima DB"
        },
        "melting_point": {
            "value": 7.6,
            "source": "Scifinder"
        }
    }
}