{
    "cas": "3779-61-1",
    "cid": 5281553,
    "iupac_name": "(3E)-3,7-dimethylocta-1,3,6-triene",
    "canonical_smiles": "CC(=CCC=C(C)C=C)C",
    "isomeric_smiles": "CC(=CC/C=C(\\C)/C=C)C",
    "inchi": "1S/C10H16/c1-5-10(4)8-6-7-9(2)3/h5,7-8H,1,6H2,2-4H3/b10-8+",
    "inchikey": "IHPKGUQCSIINRJ-CSKARUKUSA-N",
    "molecular_formula": "C10H16",
    "compound_groups": [
        "alkenes"
    ],
    "properties": {
        "cetane_number": {
            "value": "28",
            "method": "IQT",
            "source": "NREL (2014)"
        },
        "flash_point": {
            "value": "38",
            "source": "Co-Optima DB"
        }
    }
}