{
    "cas": "4032-93-3",
    "cid": 19944,
    "iupac_name": "2,3,6-trimethylheptane",
    "canonical_smiles": "CC(C)CCC(C)C(C)C",
    "isomeric_smiles": "CC(C)CCC(C)C(C)C",
    "inchi": "1S/C10H22/c1-8(2)6-7-10(5)9(3)4/h8-10H,6-7H2,1-5H3",
    "inchikey": "IHPXJGBVRWFEJB-UHFFFAOYSA-N",
    "molecular_formula": "C10H22",
    "properties": {
        "boiling_point": {
            "value": 156.0,
            "source": "Scifinder"
        }
    }
}