{
    "cas": "431-03-8",
    "cid": 650,
    "iupac_name": "butane-2,3-dione",
    "canonical_smiles": "CC(=O)C(=O)C",
    "isomeric_smiles": "CC(=O)C(=O)C",
    "inchi": "1S/C4H6O2/c1-3(5)4(2)6/h1-2H3",
    "inchikey": "QSJXEFYPDANLFS-UHFFFAOYSA-N",
    "molecular_formula": "C4H6O2",
    "properties": {
        "autoignition_temp": {
            "value": 365.0,
            "source": "Co-Optima DB"
        },
        "boiling_point": {
            "value": 88.0,
            "source": "Scifinder"
        },
        "flash_point": {
            "value": 27.0,
            "source": "Co-Optima DB"
        }
    }
}