{
    "cas": "4516-69-2",
    "cid": 20615,
    "iupac_name": "1,1,3-trimethylcyclopentane",
    "canonical_smiles": "CC1CCC(C1)(C)C",
    "isomeric_smiles": "CC1CCC(C1)(C)C",
    "inchi": "1S/C8H16/c1-7-4-5-8(2,3)6-7/h7H,4-6H2,1-3H3",
    "inchikey": "OBKHYUIZSOIEPG-UHFFFAOYSA-N",
    "molecular_formula": "C8H16",
    "properties": {
        "research_octane_number": {
            "value": "81.7",
            "source": "[9]"
        },
        "motor_octane_number": {
            "value": "83.5",
            "source": "[9]"
        },
        "octane_sensitivity": {
            "value": "-1.8",
            "source": "[9]"
        },
        "boiling_point": {
            "value": "104.9",
            "source": "scifinder"
        }
    },
    "compound_groups": []
}