{
    "cas": "464-06-2",
    "cid": 10044,
    "iupac_name": "2,2,3-trimethylbutane",
    "canonical_smiles": "CC(C)C(C)(C)C",
    "isomeric_smiles": "CC(C)C(C)(C)C",
    "inchi": "1S/C7H16/c1-6(2)7(3,4)5/h6H,1-5H3",
    "inchikey": "ZISSAWUMDACLOM-UHFFFAOYSA-N",
    "molecular_formula": "C7H16",
    "compound_groups": [
        "alkanes",
        "paraffin (non-normal)"
    ],
    "properties": {
        "cetane_number": {
            "value": 12.9,
            "method": "IQT",
            "source": "NREL (2014)"
        },
        "ysi_unified": {
            "value": 55.3
        },
        "research_octane_number": {
            "value": 112.1,
            "source": "[9]"
        },
        "motor_octane_number": {
            "value": 101.3,
            "source": "[9]"
        },
        "octane_sensitivity": {
            "value": 10.8,
            "source": "[9]"
        },
        "kinematic_viscosity": {
            "value": 0.6928
        },
        "boiling_point": {
            "value": 80.8,
            "source": "Scifinder"
        },
        "flash_point": {
            "value": -7.0,
            "source": "Co-Optima DB"
        },
        "heat_of_vaporization": {
            "value": 32.93,
            "source": "NREL, March 2017 "
        },
        "melting_point": {
            "value": -25.0,
            "source": "Scifinder"
        }
    }
}