{
    "cas": "470-67-7",
    "cid": 10106,
    "iupac_name": "1-methyl-4-propan-2-yl-7-oxabicyclo[2.2.1]heptane",
    "canonical_smiles": "CC(C)C12CCC(O1)(CC2)C",
    "isomeric_smiles": "CC(C)C12CCC(O1)(CC2)C",
    "inchi": "1S/C10H18O/c1-8(2)10-6-4-9(3,11-10)5-7-10/h8H,4-7H2,1-3H3",
    "inchikey": "RFFOTVCVTJUTAD-UHFFFAOYSA-N",
    "molecular_formula": "C10H18O",
    "properties": {
        "boiling_point": {
            "value": 174.0,
            "source": "Handbook of Chemistry and Physics"
        },
        "flash_point": {
            "value": 47.0,
            "source": "Co-Optima DB"
        },
        "melting_point": {
            "value": 1.0,
            "source": "Scifinder"
        }
    }
}