{
    "cas": "489-40-7",
    "cid": 16213731,
    "iupac_name": "(1aR,4R,7bS)-1,1,4,7-tetramethyl-1a,2,3,4,4a,5,6,7b-octahydrocyclopropa[e]azulene",
    "canonical_smiles": "CC1CCC2C(C2(C)C)C3=C(CCC13)C",
    "isomeric_smiles": "C[C@@H]1CC[C@@H]2[C@@H](C2(C)C)C3=C(CCC13)C",
    "inchi": "1S/C15H24/c1-9-6-8-12-14(15(12,3)4)13-10(2)5-7-11(9)13/h9,11-12,14H,5-8H2,1-4H3/t9-,11?,12-,14-/m1/s1",
    "inchikey": "SPCXZDDGSGTVAW-VXYFJCLZSA-N",
    "molecular_formula": "C15H24",
    "properties": {
        "flash_point": {
            "value": 110.0,
            "source": "Co-Optima DB"
        }
    }
}