{
    "cas": "491-72-5",
    "cid": 2826719,
    "iupac_name": "2,4-dihydroxy-6-pentylbenzoic acid",
    "canonical_smiles": "CCCCCC1=C(C(=CC(=C1)O)O)C(=O)O",
    "isomeric_smiles": "CCCCCC1=C(C(=CC(=C1)O)O)C(=O)O",
    "inchi": "1S/C12H16O4/c1-2-3-4-5-8-6-9(13)7-10(14)11(8)12(15)16/h6-7,13-14H,2-5H2,1H3,(H,15,16)",
    "inchikey": "SXFKFRRXJUJGSS-UHFFFAOYSA-N",
    "molecular_formula": "C12H16O4",
    "properties": {
        "melting_point": {
            "value": "143",
            "source": "Scifinder"
        }
    }
}