{
    "cas": "491-02-1",
    "cid": 1254,
    "iupac_name": "5-methyl-2-propan-2-ylcyclohexan-1-ol",
    "canonical_smiles": "CC1CCC(C(C1)O)C(C)C",
    "isomeric_smiles": "CC1CCC(C(C1)O)C(C)C",
    "inchi": "1S/C10H20O/c1-7(2)9-5-4-8(3)6-10(9)11/h7-11H,4-6H2,1-3H3",
    "inchikey": "NOOLISFMXDJSKH-UHFFFAOYSA-N",
    "molecular_formula": "C10H20O",
    "properties": {
        "boiling_point": {
            "value": 212.0,
            "source": "Scifinder"
        },
        "flash_point": {
            "value": 93.0,
            "source": "Co-Optima DB"
        },
        "melting_point": {
            "value": 42.0,
            "source": "Scifinder"
        }
    }
}