{
    "cas": "500-00-5",
    "cid": 10369,
    "iupac_name": "4-methyl-1-propan-2-ylcyclohexene",
    "canonical_smiles": "CC1CCC(=CC1)C(C)C",
    "isomeric_smiles": "CC1CCC(=CC1)C(C)C",
    "inchi": "1S/C10H18/c1-8(2)10-6-4-9(3)5-7-10/h6,8-9H,4-5,7H2,1-3H3",
    "inchikey": "YYCPSEFQLGXPCO-UHFFFAOYSA-N",
    "molecular_formula": "C10H18",
    "properties": {
        "boiling_point": {
            "value": "167",
            "source": "Scifinder"
        }
    }
}