{
    "cas": "502-56-7",
    "cid": 10405,
    "iupac_name": "nonan-5-one",
    "canonical_smiles": "CCCCC(=O)CCCC",
    "isomeric_smiles": "CCCCC(=O)CCCC",
    "inchi": "1S/C9H18O/c1-3-5-7-9(10)8-6-4-2/h3-8H2,1-2H3",
    "inchikey": "WSGCRAOTEDLMFQ-UHFFFAOYSA-N",
    "molecular_formula": "C9H18O",
    "compound_groups": [
        "saturated alkanone"
    ],
    "properties": {
        "ysi_unified": {
            "value": 41.8
        },
        "boiling_point": {
            "value": 188.4,
            "source": "Scifinder"
        },
        "flash_point": {
            "value": 61.0,
            "source": "Co-Optima DB"
        },
        "melting_point": {
            "value": -5.9,
            "source": "Scifinder"
        }
    }
}