{
    "cas": "50643-04-4",
    "cid": 1140,
    "iupac_name": "toluene",
    "canonical_smiles": "CC1=CC=CC=C1",
    "isomeric_smiles": "CC1=CC=CC=C1",
    "inchi": "1S/C7H8/c1-7-5-3-2-4-6-7/h2-6H,1H3",
    "inchikey": "YXFVVABEGXRONW-UHFFFAOYSA-N",
    "molecular_formula": "C7H8",
    "compound_groups": [
        "aromatics",
        "aromatic (single ring)"
    ],
    "properties": {
        "cetane_number": {
            "value": 6.0,
            "method": "IQT",
            "source": "NREL (2014)"
        },
        "ysi_unified": {
            "value": 170.9
        },
        "research_octane_number": {
            "value": 118.17,
            "source": "[1], [3]"
        },
        "motor_octane_number": {
            "value": 103.67,
            "source": "[1], [3]"
        },
        "octane_sensitivity": {
            "value": 14.5,
            "source": "[1], [3]"
        },
        "kinematic_viscosity": {
            "value": 0.5605
        },
        "autoignition_temp": {
            "value": 480.0,
            "source": "Co-Optima DB"
        },
        "boiling_point": {
            "value": 111.0,
            "source": "Alfa Aesar"
        },
        "flash_point": {
            "value": 4.0,
            "source": "Co-Optima DB"
        },
        "heat_of_vaporization": {
            "value": 38.01,
            "source": "CRC Handbook"
        }
    }
}