{
    "cas": "50985-84-7",
    "cid": 356,
    "iupac_name": "octane",
    "canonical_smiles": "CCCCCCCC",
    "isomeric_smiles": "CCCCCCCC",
    "inchi": "1S/C8H18/c1-3-5-7-8-6-4-2/h3-8H2,1-2H3",
    "inchikey": "TVMXDCGIABBOFY-UHFFFAOYSA-N",
    "molecular_formula": "C8H18",
    "compound_groups": [
        "alkanes",
        "normal paraffin",
        "octanes"
    ],
    "properties": {
        "cetane_number": {
            "value": "64",
            "method": "CFR",
            "source": "NREL (2014)"
        },
        "ysi_unified": {
            "value": "42.6"
        },
        "kinematic_viscosity": {
            "value": "0.6372"
        },
        "autoignition_temp": {
            "value": "220",
            "source": "Co-Optima DB"
        },
        "boiling_point": {
            "value": "125.67",
            "source": "CRC Handbook"
        },
        "flash_point": {
            "value": "15",
            "source": "Co-Optima DB"
        },
        "heat_of_vaporization": {
            "value": "41.49",
            "source": "CRC Handbook"
        },
        "melting_point": {
            "value": "-56.76",
            "source": "CRC Handbook"
        }
    }
}