{
    "cas": "51774-11-9",
    "cid": 12331,
    "iupac_name": "5-methylhexan-1-ol",
    "canonical_smiles": "CC(C)CCCCO",
    "isomeric_smiles": "CC(C)CCCCO",
    "inchi": "1S/C7H16O/c1-7(2)5-3-4-6-8/h7-8H,3-6H2,1-2H3",
    "inchikey": "ZVHAANQOQZVVFD-UHFFFAOYSA-N",
    "molecular_formula": "C7H16O",
    "properties": {
        "boiling_point": {
            "value": 170.0,
            "source": "Scifinder"
        }
    }
}