{
    "cas": "52217-02-4",
    "cid": 179,
    "iupac_name": "3-hydroxybutan-2-one",
    "canonical_smiles": "CC(C(=O)C)O",
    "isomeric_smiles": "CC(C(=O)C)O",
    "inchi": "1S/C4H8O2/c1-3(5)4(2)6/h3,5H,1-2H3",
    "inchikey": "ROWKJAVDOGWPAT-UHFFFAOYSA-N",
    "molecular_formula": "C4H8O2",
    "properties": {
        "boiling_point": {
            "value": "148",
            "source": "Scifinder"
        },
        "flash_point": {
            "value": "41",
            "source": "Co-Optima DB"
        },
        "melting_point": {
            "value": "15",
            "source": "Scifinder"
        }
    }
}