{
    "cas": "5310-57-6",
    "cid": 7296,
    "iupac_name": "methylcyclopentane",
    "canonical_smiles": "CC1CCCC1",
    "isomeric_smiles": "CC1CCCC1",
    "inchi": "1S/C6H12/c1-6-4-2-3-5-6/h6H,2-5H2,1H3",
    "inchikey": "GDOPTJXRTPNYNR-UHFFFAOYSA-N",
    "molecular_formula": "C6H12",
    "compound_groups": [
        "naphthenes",
        "naphthene - major structure is saturated ring"
    ],
    "properties": {
        "cetane_number": {
            "value": "17.2",
            "method": "IQT",
            "source": "NREL (2014)"
        },
        "ysi_unified": {
            "value": "50.3"
        },
        "research_octane_number": {
            "value": "91.3",
            "source": "[1]"
        },
        "motor_octane_number": {
            "value": "80",
            "source": "[1]"
        },
        "octane_sensitivity": {
            "value": "11.3",
            "source": "[1]"
        },
        "kinematic_viscosity": {
            "value": "0.5646"
        },
        "autoignition_temp": {
            "value": "260",
            "source": "Co-Optima DB"
        },
        "flash_point": {
            "value": "-23",
            "source": "Co-Optima DB"
        },
        "melting_point": {
            "value": "-142.4",
            "source": "Alfa Aesar"
        }
    }
}