{
    "cas": "54140-33-9",
    "cid": 12250,
    "iupac_name": "1-methoxy-2-methylpropane",
    "canonical_smiles": "CC(C)COC",
    "isomeric_smiles": "CC(C)COC",
    "inchi": "1S/C5H12O/c1-5(2)4-6-3/h5H,4H2,1-3H3",
    "inchikey": "ZYVYEJXMYBUCMN-UHFFFAOYSA-N",
    "molecular_formula": "C5H12O",
    "properties": {
        "boiling_point": {
            "value": 58.6,
            "source": "Scifinder"
        }
    }
}