{
    "cas": "542-41-6",
    "cid": 11597,
    "iupac_name": "hex-1-ene",
    "canonical_smiles": "CCCCC=C",
    "isomeric_smiles": "CCCCC=C",
    "inchi": "1S/C6H12/c1-3-5-6-4-2/h3H,1,4-6H2,2H3",
    "inchikey": "LIKMAJRDDDTEIG-UHFFFAOYSA-N",
    "molecular_formula": "C6H12",
    "compound_groups": [
        "olefins",
        "olefin (alkene) with single c=c double bond"
    ],
    "properties": {
        "cetane_number": {
            "value": 25.8,
            "method": "IQT",
            "source": "NREL (2014)"
        },
        "ysi_unified": {
            "value": 42.4
        },
        "research_octane_number": {
            "value": 76.4,
            "source": "[1]"
        },
        "motor_octane_number": {
            "value": 63.4,
            "source": "[1]"
        },
        "octane_sensitivity": {
            "value": 13.0,
            "source": "[1]"
        },
        "kinematic_viscosity": {
            "value": 0.3423
        },
        "autoignition_temp": {
            "value": 253.0,
            "source": "Co-Optima DB"
        },
        "boiling_point": {
            "value": 63.4,
            "source": "Scifinder"
        },
        "flash_point": {
            "value": -26.0,
            "source": "Co-Optima DB"
        },
        "melting_point": {
            "value": -139.7,
            "source": "Scifinder"
        }
    }
}