{
    "cas": "554-59-6",
    "cid": 79043,
    "iupac_name": "3,7,7-trimethylbicyclo[4.1.0]heptane",
    "canonical_smiles": "CC1CCC2C(C1)C2(C)C",
    "isomeric_smiles": "CC1CCC2C(C1)C2(C)C",
    "inchi": "1S/C10H18/c1-7-4-5-8-9(6-7)10(8,2)3/h7-9H,4-6H2,1-3H3",
    "inchikey": "BWRHOYDPVJPXMF-UHFFFAOYSA-N",
    "molecular_formula": "C10H18",
    "properties": {
        "boiling_point": {
            "value": 165.0,
            "source": "Scifinder @ 750 torr"
        }
    }
}