{
    "cas": "56747-96-7",
    "cid": 11746218,
    "iupac_name": "(1R,2S,5R,8S)-4,4,8-trimethyltricyclo[6.3.1.02,5]dodecan-1-ol",
    "canonical_smiles": "CC1(CC2C1CCC3(CCCC2(C3)O)C)C",
    "isomeric_smiles": "C[C@@]12CCC[C@@](C1)([C@H]3CC([C@@H]3CC2)(C)C)O",
    "inchi": "1S/C15H26O/c1-13(2)9-12-11(13)5-8-14(3)6-4-7-15(12,16)10-14/h11-12,16H,4-10H2,1-3H3/t11-,12+,14+,15-/m1/s1",
    "inchikey": "FUQAYSQLAOJBBC-PAPYEOQZSA-N",
    "molecular_formula": "C15H26O",
    "properties": {
        "melting_point": {
            "value": "93",
            "source": "Scifinder"
        }
    }
}