{
    "cas": "5729-59-9",
    "cid": 138575,
    "iupac_name": "ethoxymethoxymethoxymethoxymethoxyethane",
    "canonical_smiles": "CCOCOCOCOCOCC",
    "isomeric_smiles": "CCOCOCOCOCOCC",
    "inchi": "1S/C8H18O5/c1-3-9-5-11-7-13-8-12-6-10-4-2/h3-8H2,1-2H3",
    "inchikey": "JKBYKDXRRQROLD-UHFFFAOYSA-N",
    "molecular_formula": "C8H18O5",
    "properties": {
        "flash_point": {
            "value": 95.0,
            "source": "Co-Optima DB"
        }
    }
}