{
    "cas": "5881-17-4",
    "cid": 79985,
    "iupac_name": "3-ethyloctane",
    "canonical_smiles": "CCCCCC(CC)CC",
    "isomeric_smiles": "CCCCCC(CC)CC",
    "inchi": "1S/C10H22/c1-4-7-8-9-10(5-2)6-3/h10H,4-9H2,1-3H3",
    "inchikey": "OEYGTUAKNZFCDJ-UHFFFAOYSA-N",
    "molecular_formula": "C10H22",
    "properties": {
        "boiling_point": {
            "value": 166.5,
            "source": "Scifinder"
        }
    }
}