{
    "cas": "589-34-4",
    "cid": 11507,
    "iupac_name": "3-methylhexane",
    "canonical_smiles": "CCCC(C)CC",
    "isomeric_smiles": "CCCC(C)CC",
    "inchi": "1S/C7H16/c1-4-6-7(3)5-2/h7H,4-6H2,1-3H3",
    "inchikey": "VLJXXKKOSFGPHI-UHFFFAOYSA-N",
    "molecular_formula": "C7H16",
    "compound_groups": [
        "alkanes",
        "paraffin (non-normal)"
    ],
    "properties": {
        "cetane_number": {
            "value": 42.0,
            "method": "IQT",
            "source": "NREL (2014)"
        },
        "ysi_unified": {
            "value": 43.0
        },
        "research_octane_number": {
            "value": 52.0,
            "source": "[1]"
        },
        "motor_octane_number": {
            "value": 55.8,
            "source": "[1]"
        },
        "octane_sensitivity": {
            "value": -3.8,
            "source": "[1]"
        },
        "kinematic_viscosity": {
            "value": 0.4479
        },
        "boiling_point": {
            "value": 91.0,
            "source": "Scifinder"
        },
        "flash_point": {
            "value": -1.0,
            "source": "Co-Optima DB"
        },
        "melting_point": {
            "value": -119.0,
            "source": "Scifinder"
        }
    }
}