{
    "cas": "589-55-9",
    "cid": 11513,
    "iupac_name": "heptan-4-ol",
    "canonical_smiles": "CCCC(CCC)O",
    "isomeric_smiles": "CCCC(CCC)O",
    "inchi": "1S/C7H16O/c1-3-5-7(8)6-4-2/h7-8H,3-6H2,1-2H3",
    "inchikey": "YVBCULSIZWMTFY-UHFFFAOYSA-N",
    "molecular_formula": "C7H16O",
    "compound_groups": [
        "alcohols"
    ],
    "properties": {
        "cetane_number": {
            "value": 21.0,
            "method": "IQT",
            "source": "NREL (2014)"
        },
        "ysi_unified": {
            "value": 38.5
        },
        "flash_point": {
            "value": 48.0,
            "source": "Co-Optima DB"
        },
        "melting_point": {
            "value": -41.2,
            "source": "Scifinder"
        }
    }
}