{
    "cas": "591-12-8",
    "cid": 11559,
    "iupac_name": "5-methyl-3H-furan-2-one",
    "canonical_smiles": "CC1=CCC(=O)O1",
    "isomeric_smiles": "CC1=CCC(=O)O1",
    "inchi": "1S/C5H6O2/c1-4-2-3-5(6)7-4/h2H,3H2,1H3",
    "inchikey": "QOTQFLOTGBBMEX-UHFFFAOYSA-N",
    "molecular_formula": "C5H6O2",
    "properties": {
        "flash_point": {
            "value": "68",
            "source": "Co-Optima DB"
        },
        "melting_point": {
            "value": "18",
            "source": "Scifinder"
        }
    }
}