{
    "cas": "61193-19-9",
    "cid": 8141,
    "iupac_name": "nonane",
    "canonical_smiles": "CCCCCCCCC",
    "isomeric_smiles": "CCCCCCCCC",
    "inchi": "1S/C9H20/c1-3-5-7-9-8-6-4-2/h3-9H2,1-2H3",
    "inchikey": "BKIMMITUMNQMOS-UHFFFAOYSA-N",
    "molecular_formula": "C9H20",
    "compound_groups": [
        "alkanes",
        "normal paraffin",
        "nonanes"
    ],
    "properties": {
        "cetane_number": {
            "value": 60.9,
            "method": "IQT",
            "source": "Marquardt (2015)"
        },
        "ysi_unified": {
            "value": 50.1
        },
        "kinematic_viscosity": {
            "value": 0.807
        },
        "autoignition_temp": {
            "value": 205.0,
            "source": "Co-Optima DB"
        },
        "boiling_point": {
            "value": 150.8,
            "source": "CRC Handbook"
        },
        "flash_point": {
            "value": 31.0,
            "source": "Co-Optima DB"
        },
        "heat_of_vaporization": {
            "value": 46.4,
            "source": "Pubchem"
        },
        "melting_point": {
            "value": -53.47,
            "source": "CRC Handbook"
        }
    }
}