{
    "cas": "616-38-6",
    "cid": 12021,
    "iupac_name": "dimethyl carbonate",
    "canonical_smiles": "COC(=O)OC",
    "isomeric_smiles": "COC(=O)OC",
    "inchi": "1S/C3H6O3/c1-5-3(4)6-2/h1-2H3",
    "inchikey": "IEJIGPNLZYLLBP-UHFFFAOYSA-N",
    "molecular_formula": "C3H6O3",
    "compound_groups": [
        "other multi-oxygen compounds"
    ],
    "properties": {
        "ysi_unified": {
            "value": "10.5"
        },
        "flash_point": {
            "value": "16",
            "source": "Co-Optima DB"
        }
    }
}