{
    "cas": "61949-26-6",
    "cid": 43858,
    "iupac_name": "2-methylhexan-1-ol",
    "canonical_smiles": "CCCCC(C)CO",
    "isomeric_smiles": "CCCCC(C)CO",
    "inchi": "1S/C7H16O/c1-3-4-5-7(2)6-8/h7-8H,3-6H2,1-2H3",
    "inchikey": "LCFKURIJYIJNRU-UHFFFAOYSA-N",
    "molecular_formula": "C7H16O",
    "properties": {
        "boiling_point": {
            "value": "168",
            "source": "Scifinder"
        }
    }
}