{
    "cas": "62184-83-2",
    "cid": 143886,
    "iupac_name": "1,5,5-trimethylcyclopentene",
    "canonical_smiles": "CC1=CCCC1(C)C",
    "isomeric_smiles": "CC1=CCCC1(C)C",
    "inchi": "1S/C8H14/c1-7-5-4-6-8(7,2)3/h5H,4,6H2,1-3H3",
    "inchikey": "OHIIGLSGZTXTBM-UHFFFAOYSA-N",
    "molecular_formula": "C8H14",
    "properties": {
        "boiling_point": {
            "value": 108.0,
            "source": "Scifinder"
        }
    }
}