{
    "cas": "623-56-3",
    "cid": 12187,
    "iupac_name": "5-methylhexan-3-one",
    "canonical_smiles": "CCC(=O)CC(C)C",
    "isomeric_smiles": "CCC(=O)CC(C)C",
    "inchi": "1S/C7H14O/c1-4-7(8)5-6(2)3/h6H,4-5H2,1-3H3",
    "inchikey": "DXVYLFHTJZWTRF-UHFFFAOYSA-N",
    "molecular_formula": "C7H14O",
    "properties": {
        "boiling_point": {
            "value": 136.0,
            "source": "Scifinder"
        }
    }
}