{
    "cas": "623-42-7",
    "cid": 12180,
    "iupac_name": "methyl butanoate",
    "canonical_smiles": "CCCC(=O)OC",
    "isomeric_smiles": "CCCC(=O)OC",
    "inchi": "1S/C5H10O2/c1-3-4-5(6)7-2/h3-4H2,1-2H3",
    "inchikey": "UUIQMZJEGPQKFD-UHFFFAOYSA-N",
    "molecular_formula": "C5H10O2",
    "compound_groups": [
        "esters",
        "acetyl (has 2 c-o bonds, formed by reaction of aldehyde & alcohol)"
    ],
    "properties": {
        "cetane_number": {
            "value": "6.4",
            "method": "Unknown",
            "source": "BioCompoundML (2016)"
        },
        "ysi_unified": {
            "value": "18.6"
        },
        "kinematic_viscosity": {
            "value": "0.5276"
        },
        "boiling_point": {
            "value": "102.8",
            "source": "Pubchem"
        },
        "flash_point": {
            "value": "14",
            "source": "Co-Optima DB"
        },
        "heat_of_vaporization": {
            "value": "41",
            "source": "Chickos and Acree, 2003. Enthalpies of Vaporization of Organic and Organometallic Compounds"
        },
        "melting_point": {
            "value": "-85.8",
            "source": "Pubchem"
        }
    }
}