{
    "cas": "624-24-8",
    "cid": 12206,
    "iupac_name": "methyl pentanoate",
    "canonical_smiles": "CCCCC(=O)OC",
    "isomeric_smiles": "CCCCC(=O)OC",
    "inchi": "1S/C6H12O2/c1-3-4-5-6(7)8-2/h3-5H2,1-2H3",
    "inchikey": "HNBDRPTVWVGKBR-UHFFFAOYSA-N",
    "molecular_formula": "C6H12O2",
    "compound_groups": [
        "esters"
    ],
    "properties": {
        "cetane_number": {
            "value": "13.3",
            "method": "IQT",
            "source": "Marquardt (2015)"
        },
        "ysi_unified": {
            "value": "22.3"
        },
        "research_octane_number": {
            "value": "103.4",
            "source": "[11]"
        },
        "motor_octane_number": {
            "value": "101.1",
            "source": "[11]"
        },
        "octane_sensitivity": {
            "value": "2.3",
            "source": "[11]"
        },
        "flash_point": {
            "value": "22",
            "source": "Co-Optima DB"
        }
    }
}