{
    "cas": "625-86-5",
    "cid": 12266,
    "iupac_name": "2,5-dimethylfuran",
    "canonical_smiles": "CC1=CC=C(O1)C",
    "isomeric_smiles": "CC1=CC=C(O1)C",
    "inchi": "1S/C6H8O/c1-5-3-4-6(2)7-5/h3-4H,1-2H3",
    "inchikey": "GSNUFIFRDBKVIE-UHFFFAOYSA-N",
    "molecular_formula": "C6H8O",
    "compound_groups": [
        "cyclic ethers",
        "aromatics"
    ],
    "properties": {
        "cetane_number": {
            "value": 10.9,
            "method": "IQT",
            "source": "Marquardt (2015)"
        },
        "ysi_unified": {
            "value": 55.0
        },
        "research_octane_number": {
            "value": 101.3,
            "source": "[1], [9]"
        },
        "motor_octane_number": {
            "value": 88.1,
            "source": "[1], [9]"
        },
        "octane_sensitivity": {
            "value": 13.2,
            "source": "[1], [9]"
        },
        "boiling_point": {
            "value": 93.5,
            "source": "Scifinder"
        },
        "flash_point": {
            "value": 1.0,
            "source": "Co-Optima DB"
        },
        "heat_of_vaporization": {
            "value": 31.8,
            "source": "Chickos and Acree, 2003. Enthalpies of Vaporization of Organic and Organometallic Compounds"
        }
    }
}