{
    "cas": "627-02-1",
    "cid": 69386,
    "iupac_name": "1-ethoxy-2-methylpropane",
    "canonical_smiles": "CCOCC(C)C",
    "isomeric_smiles": "CCOCC(C)C",
    "inchi": "1S/C6H14O/c1-4-7-5-6(2)3/h6H,4-5H2,1-3H3",
    "inchikey": "RQUBQBFVDOLUKC-UHFFFAOYSA-N",
    "molecular_formula": "C6H14O",
    "properties": {
        "boiling_point": {
            "value": 81.0,
            "source": "Scifinder"
        }
    }
}