{
    "cas": "628-28-4",
    "cid": 12338,
    "iupac_name": "1-methoxybutane",
    "canonical_smiles": "CCCCOC",
    "isomeric_smiles": "CCCCOC",
    "inchi": "1S/C5H12O/c1-3-4-5-6-2/h3-5H2,1-2H3",
    "inchikey": "CXBDYQVECUFKRK-UHFFFAOYSA-N",
    "molecular_formula": "C5H12O",
    "compound_groups": [
        "saturated ethers"
    ],
    "properties": {
        "ysi_unified": {
            "value": "23"
        },
        "flash_point": {
            "value": "-10",
            "source": "Co-Optima DB"
        }
    }
}