{
    "cas": "629-62-9",
    "cid": 12391,
    "iupac_name": "pentadecane",
    "canonical_smiles": "CCCCCCCCCCCCCCC",
    "isomeric_smiles": "CCCCCCCCCCCCCCC",
    "inchi": "1S/C15H32/c1-3-5-7-9-11-13-15-14-12-10-8-6-4-2/h3-15H2,1-2H3",
    "inchikey": "YCOZIPAWZNQLMR-UHFFFAOYSA-N",
    "molecular_formula": "C15H32",
    "compound_groups": [
        "alkanes",
        "normal paraffin"
    ],
    "properties": {
        "cetane_number": {
            "value": "96",
            "method": "Unknown",
            "source": "NREL (2014)"
        },
        "kinematic_viscosity": {
            "value": "2.4916"
        },
        "boiling_point": {
            "value": "270.6",
            "source": "Scifinder"
        },
        "flash_point": {
            "value": "132",
            "source": "Co-Optima DB"
        },
        "melting_point": {
            "value": "9.9",
            "source": "Scifinder"
        }
    }
}