{
    "cas": "629-82-3",
    "cid": 12399,
    "iupac_name": "1-octoxyoctane",
    "canonical_smiles": "CCCCCCCCOCCCCCCCC",
    "isomeric_smiles": "CCCCCCCCOCCCCCCCC",
    "inchi": "1S/C16H34O/c1-3-5-7-9-11-13-15-17-16-14-12-10-8-6-4-2/h3-16H2,1-2H3",
    "inchikey": "NKJOXAZJBOMXID-UHFFFAOYSA-N",
    "molecular_formula": "C16H34O",
    "properties": {
        "flash_point": {
            "value": "110",
            "source": "Co-Optima DB"
        }
    }
}