{
    "cas": "629-11-8",
    "cid": 12374,
    "iupac_name": "hexane-1,6-diol",
    "canonical_smiles": "C(CCCO)CCO",
    "isomeric_smiles": "C(CCCO)CCO",
    "inchi": "1S/C6H14O2/c7-5-3-1-2-4-6-8/h7-8H,1-6H2",
    "inchikey": "XXMIOPMDWAUFGU-UHFFFAOYSA-N",
    "molecular_formula": "C6H14O2",
    "properties": {
        "autoignition_temp": {
            "value": 320.0,
            "source": "Co-Optima DB"
        },
        "boiling_point": {
            "value": 208.0,
            "source": "Scifinder"
        },
        "flash_point": {
            "value": 101.0,
            "source": "Co-Optima DB"
        }
    }
}