{
    "cas": "63335-87-5",
    "cid": 15600,
    "iupac_name": "decane",
    "canonical_smiles": "CCCCCCCCCC",
    "isomeric_smiles": "CCCCCCCCCC",
    "inchi": "1S/C10H22/c1-3-5-7-9-10-8-6-4-2/h3-10H2,1-2H3",
    "inchikey": "DIOQZVSQGTUSAI-UHFFFAOYSA-N",
    "molecular_formula": "C10H22",
    "compound_groups": [
        "alkanes",
        "normal paraffin"
    ],
    "properties": {
        "cetane_number": {
            "value": 65.5,
            "method": "IQT",
            "source": "Marquardt (2015)"
        },
        "ysi_unified": {
            "value": 57.2
        },
        "research_octane_number": {
            "value": 39.8,
            "source": "[1]"
        },
        "motor_octane_number": {
            "value": 40.5,
            "source": "[1]"
        },
        "octane_sensitivity": {
            "value": -0.7,
            "source": "[1]"
        },
        "kinematic_viscosity": {
            "value": 1.013
        },
        "autoignition_temp": {
            "value": 210.0,
            "source": "Co-Optima DB"
        },
        "boiling_point": {
            "value": 174.1,
            "source": "Pubchem"
        },
        "flash_point": {
            "value": 46.0,
            "source": "Co-Optima DB"
        },
        "heat_of_vaporization": {
            "value": 51.42,
            "source": "Pubchem"
        }
    }
}