{
    "cas": "6378-65-0",
    "cid": 22873,
    "iupac_name": "hexyl hexanoate",
    "canonical_smiles": "CCCCCCOC(=O)CCCCC",
    "isomeric_smiles": "CCCCCCOC(=O)CCCCC",
    "inchi": "1S/C12H24O2/c1-3-5-7-9-11-14-12(13)10-8-6-4-2/h3-11H2,1-2H3",
    "inchikey": "NCDCLPBOMHPFCV-UHFFFAOYSA-N",
    "molecular_formula": "C12H24O2",
    "compound_groups": [
        "esters"
    ],
    "properties": {
        "cetane_number": {
            "value": 40.0,
            "method": "IQT",
            "source": "NREL (2014)"
        },
        "ysi_unified": {
            "value": 66.7
        },
        "flash_point": {
            "value": 99.0,
            "source": "Co-Optima DB"
        },
        "melting_point": {
            "value": -55.0,
            "source": "Scifinder"
        }
    }
}