{
    "cas": "63968-64-9",
    "cid": 68827,
    "iupac_name": "(1R,4S,5R,8S,9R,12S,13R)-1,5,9-trimethyl-11,14,15,16-tetraoxatetracyclo[10.3.1.04,13.08,13]hexadecan-10-one",
    "canonical_smiles": "CC1CCC2C(C(=O)OC3C24C1CCC(O3)(OO4)C)C",
    "isomeric_smiles": "C[C@@H]1CC[C@H]2[C@H](C(=O)O[C@H]3[C@@]24[C@H]1CC[C@](O3)(OO4)C)C",
    "inchi": "1S/C15H22O5/c1-8-4-5-11-9(2)12(16)17-13-15(11)10(8)6-7-14(3,18-13)19-20-15/h8-11,13H,4-7H2,1-3H3/t8-,9-,10+,11+,13-,14-,15-/m1/s1",
    "inchikey": "BLUAFEHZUWYNDE-NNWCWBAJSA-N",
    "molecular_formula": "C15H22O5",
    "properties": {
        "melting_point": {
            "value": 157.0,
            "source": "Scifinder"
        }
    }
}