{
    "cas": "64118-37-2",
    "cid": 7991,
    "iupac_name": "pentanoic acid",
    "canonical_smiles": "CCCCC(=O)O",
    "isomeric_smiles": "CCCCC(=O)O",
    "inchi": "1S/C5H10O2/c1-2-3-4-5(6)7/h2-4H2,1H3,(H,6,7)",
    "inchikey": "NQPDZGIKBAWPEJ-UHFFFAOYSA-N",
    "molecular_formula": "C5H10O2",
    "compound_groups": [
        "organic acid"
    ],
    "properties": {
        "kinematic_viscosity": {
            "value": "1.719"
        },
        "autoignition_temp": {
            "value": "400",
            "source": "Co-Optima DB"
        },
        "boiling_point": {
            "value": "186.5",
            "source": "Scifinder"
        },
        "flash_point": {
            "value": "96",
            "source": "Co-Optima DB"
        },
        "melting_point": {
            "value": "-34.5",
            "source": "Scifinder"
        }
    }
}