{
    "cas": "644-76-8",
    "cid": 15977254,
    "iupac_name": "(1R,2R,3S,4R,5S)-6,8-dioxabicyclo[3.2.1]octane-2,3,4-triol",
    "canonical_smiles": "C1C2C(C(C(C(O1)O2)O)O)O",
    "isomeric_smiles": "C1[C@@H]2[C@@H]([C@@H]([C@H]([C@@H](O1)O2)O)O)O",
    "inchi": "1S/C6H10O5/c7-3-2-1-10-6(11-2)5(9)4(3)8/h2-9H,1H2/t2-,3+,4+,5-,6+/m1/s1",
    "inchikey": "TWNIBLMWSKIRAT-PHYPRBDBSA-N",
    "molecular_formula": "C6H10O5",
    "properties": {
        "melting_point": {
            "value": 220.5,
            "source": "Scifinder"
        }
    }
}