{
    "cas": "64742-49-0",
    "cid": 7892,
    "iupac_name": "2-methylpentane",
    "canonical_smiles": "CCCC(C)C",
    "isomeric_smiles": "CCCC(C)C",
    "inchi": "1S/C6H14/c1-4-5-6(2)3/h6H,4-5H2,1-3H3",
    "inchikey": "AFABGHUZZDYHJO-UHFFFAOYSA-N",
    "molecular_formula": "C6H14",
    "compound_groups": [
        "alkanes",
        "paraffin (non-normal)"
    ],
    "properties": {
        "cetane_number": {
            "value": "34.5",
            "method": "IQT",
            "source": "NREL (2014)"
        },
        "ysi_unified": {
            "value": "36.7"
        },
        "research_octane_number": {
            "value": "73.4",
            "source": "[1]"
        },
        "motor_octane_number": {
            "value": "73.5",
            "source": "[1]"
        },
        "octane_sensitivity": {
            "value": "-0.1",
            "source": "[1]"
        },
        "kinematic_viscosity": {
            "value": "0.3914"
        },
        "flash_point": {
            "value": "-7",
            "source": "Co-Optima DB"
        }
    }
}