{
    "cas": "65996-98-7",
    "cid": 440917,
    "iupac_name": "(4R)-1-methyl-4-prop-1-en-2-ylcyclohexene",
    "canonical_smiles": "CC1=CCC(CC1)C(=C)C",
    "isomeric_smiles": "CC1=CC[C@@H](CC1)C(=C)C",
    "inchi": "1S/C10H16/c1-8(2)10-6-4-9(3)5-7-10/h4,10H,1,5-7H2,2-3H3/t10-/m0/s1",
    "inchikey": "XMGQYMWWDOXHJM-JTQLQIEISA-N",
    "molecular_formula": "C10H16",
    "properties": {
        "autoignition_temp": {
            "value": 237.0,
            "source": "Co-Optima DB"
        },
        "boiling_point": {
            "value": 176.0,
            "source": "Scifinder"
        },
        "flash_point": {
            "value": 48.0,
            "source": "Co-Optima DB"
        },
        "melting_point": {
            "value": -74.35,
            "source": "Scifinder"
        }
    }
}