{
    "cas": "66072-40-0",
    "cid": 244,
    "iupac_name": "phenylmethanol",
    "canonical_smiles": "C1=CC=C(C=C1)CO",
    "isomeric_smiles": "C1=CC=C(C=C1)CO",
    "inchi": "1S/C7H8O/c8-6-7-4-2-1-3-5-7/h1-5,8H,6H2",
    "inchikey": "WVDDGKGOMKODPV-UHFFFAOYSA-N",
    "molecular_formula": "C7H8O",
    "compound_groups": [],
    "properties": {
        "ysi_unified": {
            "value": "189"
        },
        "autoignition_temp": {
            "value": "436",
            "source": "Co-Optima DB"
        },
        "boiling_point": {
            "value": "205",
            "source": "CRC Handbook"
        },
        "flash_point": {
            "value": "96",
            "source": "Co-Optima DB"
        },
        "heat_of_vaporization": {
            "value": "50.48",
            "source": "CRC Handbook"
        },
        "melting_point": {
            "value": "-15.2",
            "source": "CRC handbook"
        }
    }
}