{
    "cas": "67-47-0",
    "cid": 237332,
    "iupac_name": "5-(hydroxymethyl)furan-2-carbaldehyde",
    "canonical_smiles": "C1=C(OC(=C1)C=O)CO",
    "isomeric_smiles": "C1=C(OC(=C1)C=O)CO",
    "inchi": "1S/C6H6O3/c7-3-5-1-2-6(4-8)9-5/h1-3,8H,4H2",
    "inchikey": "NOEGNKMFWQHSLB-UHFFFAOYSA-N",
    "molecular_formula": "C6H6O3",
    "properties": {
        "boiling_point": {
            "value": 115.0,
            "source": "Scifinder"
        },
        "flash_point": {
            "value": 79.0,
            "source": "Co-Optima DB"
        },
        "melting_point": {
            "value": 31.5,
            "source": "Scifinder"
        }
    }
}