{
    "cas": "68311-14-8",
    "cid": 637566,
    "iupac_name": "(2E)-3,7-dimethylocta-2,6-dien-1-ol",
    "canonical_smiles": "CC(=CCCC(=CCO)C)C",
    "isomeric_smiles": "CC(=CCC/C(=C/CO)/C)C",
    "inchi": "1S/C10H18O/c1-9(2)5-4-6-10(3)7-8-11/h5,7,11H,4,6,8H2,1-3H3/b10-7+",
    "inchikey": "GLZPCOQZEFWAFX-JXMROGBWSA-N",
    "molecular_formula": "C10H18O",
    "compound_groups": [
        "alcohols",
        "olefins"
    ],
    "properties": {
        "cetane_number": {
            "value": "19.3",
            "method": "IQT",
            "source": "NREL (2014)"
        },
        "flash_point": {
            "value": "108",
            "source": "Co-Optima DB"
        }
    }
}