{
    "cas": "68411-84-7",
    "cid": 7237,
    "iupac_name": "1,2-xylene",
    "canonical_smiles": "CC1=CC=CC=C1C",
    "isomeric_smiles": "CC1=CC=CC=C1C",
    "inchi": "1S/C8H10/c1-7-5-3-4-6-8(7)2/h3-6H,1-2H3",
    "inchikey": "CTQNGGLPUBDAKN-UHFFFAOYSA-N",
    "molecular_formula": "C8H10",
    "compound_groups": [
        "aromatics",
        "aromatic (single ring)"
    ],
    "properties": {
        "cetane_number": {
            "value": 8.0,
            "method": "CFR",
            "source": "NREL (2014)"
        },
        "ysi_unified": {
            "value": 204.8
        },
        "research_octane_number": {
            "value": 120.0,
            "source": "[9]"
        },
        "motor_octane_number": {
            "value": 100.0,
            "source": "[9]"
        },
        "octane_sensitivity": {
            "value": 20.0,
            "source": "[9]"
        },
        "kinematic_viscosity": {
            "value": 0.7415
        },
        "autoignition_temp": {
            "value": 463.0,
            "source": "Co-Optima DB"
        },
        "flash_point": {
            "value": 32.0,
            "source": "Co-Optima DB"
        },
        "heat_of_vaporization": {
            "value": 43.43,
            "source": "Pub Chem"
        },
        "melting_point": {
            "value": -25.0,
            "source": "Alfa Aesar"
        }
    }
}