{
    "cas": "68911-61-5",
    "cid": 8221,
    "iupac_name": "octadecan-1-ol",
    "canonical_smiles": "CCCCCCCCCCCCCCCCCCO",
    "isomeric_smiles": "CCCCCCCCCCCCCCCCCCO",
    "inchi": "1S/C18H38O/c1-2-3-4-5-6-7-8-9-10-11-12-13-14-15-16-17-18-19/h19H,2-18H2,1H3",
    "inchikey": "GLDOVTGHNKAZLK-UHFFFAOYSA-N",
    "molecular_formula": "C18H38O",
    "compound_groups": [
        "alcohols"
    ],
    "properties": {
        "cetane_number": {
            "value": "81",
            "method": "Other Ignition Delay Method",
            "source": "NREL (2014)"
        },
        "boiling_point": {
            "value": "334.3",
            "source": "Scifinder "
        },
        "flash_point": {
            "value": "200",
            "source": "Co-Optima DB"
        },
        "melting_point": {
            "value": "59.5",
            "source": "Scifinder"
        }
    }
}