{
    "cas": "68956-54-7",
    "cid": 62695,
    "iupac_name": "(E)-but-2-ene",
    "canonical_smiles": "CC=CC",
    "isomeric_smiles": "C/C=C/C",
    "inchi": "1S/C4H8/c1-3-4-2/h3-4H,1-2H3/b4-3+",
    "inchikey": "IAQRGUVFOMOMEM-ONEGZZNKSA-N",
    "molecular_formula": "C4H8",
    "properties": {
        "research_octane_number": {
            "value": 99.6,
            "source": "[1]"
        },
        "motor_octane_number": {
            "value": 86.5,
            "source": "[1]"
        },
        "octane_sensitivity": {
            "value": 13.1,
            "source": "[1]"
        },
        "kinematic_viscosity": {
            "value": 0.2792
        },
        "boiling_point": {
            "value": 0.8,
            "source": "Scifinder"
        },
        "melting_point": {
            "value": -105.5,
            "source": "Scifinder"
        }
    },
    "compound_groups": [
        "olefin (alkene) with single c=c double bond",
        "butenes"
    ]
}