{
    "cas": "68989-27-5",
    "cid": 6560,
    "iupac_name": "2-methylpropan-1-ol",
    "canonical_smiles": "CC(C)CO",
    "isomeric_smiles": "CC(C)CO",
    "inchi": "1S/C4H10O/c1-4(2)3-5/h4-5H,3H2,1-2H3",
    "inchikey": "ZXEKIIBDNHEJCQ-UHFFFAOYSA-N",
    "molecular_formula": "C4H10O",
    "compound_groups": [
        "alcohols",
        "alcohol"
    ],
    "properties": {
        "cetane_number": {
            "value": "8.5",
            "method": "IQT",
            "source": "NREL (2014)"
        },
        "ysi_unified": {
            "value": "26.2"
        },
        "research_octane_number": {
            "value": "105",
            "source": "[5], [6]"
        },
        "motor_octane_number": {
            "value": "90",
            "source": "[5], [6]"
        },
        "octane_sensitivity": {
            "value": "15",
            "source": "[5], [6]"
        },
        "kinematic_viscosity": {
            "value": "2.873"
        },
        "boiling_point": {
            "value": "107.89",
            "source": "Alfa Aesar"
        },
        "flash_point": {
            "value": "28",
            "source": "Co-Optima DB"
        },
        "heat_of_vaporization": {
            "value": "50.8",
            "source": "Chickos and Acree, 2003. Enthalpies of Vaporization of Organic and Organometallic Compounds"
        },
        "melting_point": {
            "value": "-108",
            "source": "Alfa Aesar"
        }
    }
}