{
    "cas": "702-79-4",
    "cid": 12800,
    "iupac_name": "1,3-dimethyladamantane",
    "canonical_smiles": "CC12CC3CC(C1)CC(C3)(C2)C",
    "isomeric_smiles": "CC12CC3CC(C1)CC(C3)(C2)C",
    "inchi": "1S/C12H20/c1-11-4-9-3-10(5-11)7-12(2,6-9)8-11/h9-10H,3-8H2,1-2H3",
    "inchikey": "CWNOIUTVJRWADX-UHFFFAOYSA-N",
    "molecular_formula": "C12H20",
    "properties": {
        "boiling_point": {
            "value": "210",
            "source": "Scifinder"
        },
        "flash_point": {
            "value": "53",
            "source": "Co-Optima DB"
        }
    }
}