{
    "cas": "70913-86-9",
    "cid": 6334,
    "iupac_name": "propane",
    "canonical_smiles": "CCC",
    "isomeric_smiles": "CCC",
    "inchi": "1S/C3H8/c1-3-2/h3H2,1-2H3",
    "inchikey": "ATUOYWHBWRKTHZ-UHFFFAOYSA-N",
    "molecular_formula": "C3H8",
    "properties": {
        "research_octane_number": {
            "value": 111.0,
            "source": "[4]"
        },
        "motor_octane_number": {
            "value": 97.1,
            "source": "[4]"
        },
        "octane_sensitivity": {
            "value": 13.9,
            "source": "[4]"
        },
        "kinematic_viscosity": {
            "value": 0.1858
        },
        "autoignition_temp": {
            "value": 450.0,
            "source": "Co-Optima DB"
        },
        "flash_point": {
            "value": -104.0,
            "source": "Co-Optima DB"
        },
        "heat_of_vaporization": {
            "value": 14.79,
            "source": "CRC Handbook"
        }
    },
    "compound_groups": [
        "normal paraffin",
        "paraffins"
    ]
}