{
    "cas": "71-31-8",
    "cid": 1031,
    "iupac_name": "propan-1-ol",
    "canonical_smiles": "CCCO",
    "isomeric_smiles": "CCCO",
    "inchi": "1S/C3H8O/c1-2-3-4/h4H,2-3H2,1H3",
    "inchikey": "BDERNNFJNOPAEC-UHFFFAOYSA-N",
    "molecular_formula": "C3H8O",
    "compound_groups": [
        "alcohols",
        "alcohol"
    ],
    "properties": {
        "cetane_number": {
            "value": 12.0,
            "method": "Unknown",
            "source": "NREL (2014)"
        },
        "ysi_unified": {
            "value": 16.2
        },
        "research_octane_number": {
            "value": 104.0,
            "source": "[6]"
        },
        "motor_octane_number": {
            "value": 89.0,
            "source": "[6]"
        },
        "octane_sensitivity": {
            "value": 15.0,
            "source": "[6]"
        },
        "kinematic_viscosity": {
            "value": 1.847
        },
        "autoignition_temp": {
            "value": 371.0,
            "source": "Co-Optima DB"
        },
        "boiling_point": {
            "value": 97.2,
            "source": "Scifinder"
        },
        "flash_point": {
            "value": 23.0,
            "source": "Co-Optima DB"
        },
        "heat_of_vaporization": {
            "value": 47.4,
            "source": "Chickos and Acree, 2003. Enthalpies of Vaporization of Organic and Organometallic Compounds"
        },
        "melting_point": {
            "value": -127.0,
            "source": "The Merck Index"
        }
    }
}