{
    "cas": "7361-80-0",
    "cid": 5319706,
    "iupac_name": "methyl (9Z,12Z,15Z)-octadeca-9,12,15-trienoate",
    "canonical_smiles": "CCC=CCC=CCC=CCCCCCCCC(=O)OC",
    "isomeric_smiles": "CC/C=C\\C/C=C\\C/C=C\\CCCCCCCC(=O)OC",
    "inchi": "1S/C19H32O2/c1-3-4-5-6-7-8-9-10-11-12-13-14-15-16-17-18-19(20)21-2/h4-5,7-8,10-11H,3,6,9,12-18H2,1-2H3/b5-4-,8-7-,11-10-",
    "inchikey": "DVWSXZIHSUZZKJ-YSTUJMKBSA-N",
    "molecular_formula": "C19H32O2",
    "compound_groups": [
        "esters",
        "olefins"
    ],
    "properties": {
        "cetane_number": {
            "value": "37",
            "method": "IQT",
            "source": "NREL (2014)"
        },
        "flash_point": {
            "value": "113",
            "source": "Co-Optima DB"
        }
    }
}