{
    "cas": "74133-25-8",
    "cid": 53232,
    "iupac_name": "[(1S,3R,7S,8S,8aR)-8-[2-[(2R,4R)-4-hydroxy-6-oxooxan-2-yl]ethyl]-3,7-dimethyl-1,2,3,7,8,8a-hexahydronaphthalen-1-yl] (2S)-2-methylbutanoate",
    "canonical_smiles": "CCC(C)C(=O)OC1CC(C=C2C1C(C(C=C2)C)CCC3CC(CC(=O)O3)O)C",
    "isomeric_smiles": "CC[C@H](C)C(=O)O[C@H]1C[C@H](C=C2[C@H]1[C@H]([C@H](C=C2)C)CC[C@@H]3C[C@H](CC(=O)O3)O)C",
    "inchi": "1S/C24H36O5/c1-5-15(3)24(27)29-21-11-14(2)10-17-7-6-16(4)20(23(17)21)9-8-19-12-18(25)13-22(26)28-19/h6-7,10,14-16,18-21,23,25H,5,8-9,11-13H2,1-4H3/t14-,15-,16-,18+,19+,20-,21-,23-/m0/s1",
    "inchikey": "PCZOHLXUXFIOCF-BXMDZJJMSA-N",
    "molecular_formula": "C24H36O5",
    "properties": {
        "melting_point": {
            "value": 174.0,
            "source": "Scifinder"
        }
    }
}