{
    "cas": "74664-93-0",
    "cid": 12389,
    "iupac_name": "tetradecane",
    "canonical_smiles": "CCCCCCCCCCCCCC",
    "isomeric_smiles": "CCCCCCCCCCCCCC",
    "inchi": "1S/C14H30/c1-3-5-7-9-11-13-14-12-10-8-6-4-2/h3-14H2,1-2H3",
    "inchikey": "BGHCVCJVXZWKCC-UHFFFAOYSA-N",
    "molecular_formula": "C14H30",
    "compound_groups": [
        "alkanes",
        "normal paraffin"
    ],
    "properties": {
        "cetane_number": {
            "value": 85.1,
            "method": "IQT",
            "source": "NREL (2014)"
        },
        "kinematic_viscosity": {
            "value": 2.2511
        },
        "autoignition_temp": {
            "value": 200.0,
            "source": "Co-Optima DB"
        },
        "boiling_point": {
            "value": 253.7,
            "source": "Scifinder"
        },
        "flash_point": {
            "value": 100.0,
            "source": "Co-Optima DB"
        },
        "heat_of_vaporization": {
            "value": 71.3,
            "source": "Pub Chem"
        },
        "melting_point": {
            "value": 5.9,
            "source": "Scifinder"
        }
    }
}