{
    "cas": "74806-04-5",
    "cid": 26049,
    "iupac_name": "3,7,7-trimethylbicyclo[4.1.0]hept-3-ene",
    "canonical_smiles": "CC1=CCC2C(C1)C2(C)C",
    "isomeric_smiles": "CC1=CCC2C(C1)C2(C)C",
    "inchi": "1S/C10H16/c1-7-4-5-8-9(6-7)10(8,2)3/h4,8-9H,5-6H2,1-3H3",
    "inchikey": "BQOFWKZOCNGFEC-UHFFFAOYSA-N",
    "molecular_formula": "C10H16",
    "compound_groups": [
        "cycloalkenes",
        "cyclic"
    ],
    "properties": {
        "cetane_number": {
            "value": 27.0,
            "method": "IQT",
            "source": "NREL (2014)"
        },
        "research_octane_number": {
            "value": 73.5,
            "source": ""
        },
        "motor_octane_number": {
            "value": 55.8,
            "source": ""
        },
        "octane_sensitivity": {
            "value": 17.7,
            "source": ""
        },
        "autoignition_temp": {
            "value": 260.0,
            "source": "Co-Optima DB"
        },
        "boiling_point": {
            "value": 168.0,
            "source": "Pubchem"
        },
        "flash_point": {
            "value": 47.0,
            "source": "Co-Optima DB"
        }
    }
}