{
    "cas": "75-85-4",
    "cid": 6405,
    "iupac_name": "2-methylbutan-2-ol",
    "canonical_smiles": "CCC(C)(C)O",
    "isomeric_smiles": "CCC(C)(C)O",
    "inchi": "1S/C5H12O/c1-4-5(2,3)6/h6H,4H2,1-3H3",
    "inchikey": "MSXVEPNJUHWQHW-UHFFFAOYSA-N",
    "molecular_formula": "C5H12O",
    "compound_groups": [
        "alcohols",
        "alcohol"
    ],
    "properties": {
        "cetane_number": {
            "value": "12.1",
            "method": "IQT",
            "source": "Marquardt (2015)"
        },
        "ysi_unified": {
            "value": "32.9"
        },
        "kinematic_viscosity": {
            "value": "2.7205"
        },
        "autoignition_temp": {
            "value": "819",
            "source": "Co-Optima DB"
        },
        "boiling_point": {
            "value": "102.4",
            "source": "CRC Handbook"
        },
        "flash_point": {
            "value": "67",
            "source": "Co-Optima DB"
        },
        "heat_of_vaporization": {
            "value": "40.11",
            "source": "Pubchem"
        },
        "melting_point": {
            "value": "-9.1",
            "source": "CRC Handbook"
        }
    }
}