{
    "cas": "7642-10-6",
    "cid": 5357259,
    "iupac_name": "(E)-hept-3-ene",
    "canonical_smiles": "CCCC=CCC",
    "isomeric_smiles": "CCC/C=C/CC",
    "inchi": "1S/C7H14/c1-3-5-7-6-4-2/h5,7H,3-4,6H2,1-2H3/b7-5+",
    "inchikey": "WZHKDGJSXCTSCK-FNORWQNLSA-N",
    "molecular_formula": "C7H14",
    "compound_groups": [
        "alkenes"
    ],
    "properties": {
        "ysi_unified": {
            "value": 53.5
        },
        "research_octane_number": {
            "value": 89.8,
            "source": ""
        },
        "motor_octane_number": {
            "value": 78.65,
            "source": ""
        },
        "octane_sensitivity": {
            "value": 11.15,
            "source": ""
        },
        "boiling_point": {
            "value": 95.7,
            "source": "Scifinder"
        }
    }
}