{
    "cas": "764-96-5",
    "cid": 5364488,
    "iupac_name": "(Z)-undec-5-ene",
    "canonical_smiles": "CCCCCC=CCCCC",
    "isomeric_smiles": "CCCCC/C=C\\CCCC",
    "inchi": "1S/C11H22/c1-3-5-7-9-11-10-8-6-4-2/h9,11H,3-8,10H2,1-2H3/b11-9-",
    "inchikey": "NGCRXXLKJAAUQQ-LUAWRHEFSA-N",
    "molecular_formula": "C11H22",
    "properties": {
        "melting_point": {
            "value": "-106.5",
            "source": "Scifinder"
        }
    }
}