{
    "cas": "7731-28-4",
    "cid": 11524,
    "iupac_name": "4-methylcyclohexan-1-ol",
    "canonical_smiles": "CC1CCC(CC1)O",
    "isomeric_smiles": "CC1CCC(CC1)O",
    "inchi": "1S/C7H14O/c1-6-2-4-7(8)5-3-6/h6-8H,2-5H2,1H3",
    "inchikey": "MQWCXKGKQLNYQG-UHFFFAOYSA-N",
    "molecular_formula": "C7H14O",
    "properties": {
        "boiling_point": {
            "value": "173",
            "source": "Scifinder"
        },
        "flash_point": {
            "value": "70",
            "source": "Co-Optima DB"
        },
        "melting_point": {
            "value": "-41",
            "source": "Chemspider"
        }
    }
}