{
    "cas": "78-93-3",
    "cid": 6569,
    "iupac_name": "butan-2-one",
    "canonical_smiles": "CCC(=O)C",
    "isomeric_smiles": "CCC(=O)C",
    "inchi": "1S/C4H8O/c1-3-4(2)5/h3H2,1-2H3",
    "inchikey": "ZWEHNKRNPOVVGH-UHFFFAOYSA-N",
    "molecular_formula": "C4H8O",
    "compound_groups": [
        "saturated alkanone",
        "ketone",
        "ketones"
    ],
    "properties": {
        "ysi_unified": {
            "value": "17.2"
        },
        "research_octane_number": {
            "value": "105.3",
            "source": "[9]"
        },
        "motor_octane_number": {
            "value": "105.5",
            "source": "[9]"
        },
        "octane_sensitivity": {
            "value": "-0.2",
            "source": "[9]"
        },
        "kinematic_viscosity": {
            "value": "0.4403"
        },
        "autoignition_temp": {
            "value": "505",
            "source": "Co-Optima DB"
        },
        "boiling_point": {
            "value": "79.6",
            "source": "Scifinder"
        },
        "flash_point": {
            "value": "-9",
            "source": "Co-Optima DB"
        },
        "heat_of_vaporization": {
            "value": "34.7",
            "source": "Chickos and Acree, 2003. Enthalpies of Vaporization of Organic and Organometallic Compounds"
        },
        "melting_point": {
            "value": "-86",
            "source": "Scifinder"
        }
    }
}