{
    "cas": "79-54-9",
    "cid": 221062,
    "iupac_name": "(1R,4aR,4bS,10aR)-1,4a-dimethyl-7-propan-2-yl-2,3,4,4b,5,9,10,10a-octahydrophenanthrene-1-carboxylic acid",
    "canonical_smiles": "CC(C)C1=CCC2C(=C1)CCC3C2(CCCC3(C)C(=O)O)C",
    "isomeric_smiles": "CC(C)C1=CC[C@H]2C(=C1)CC[C@@H]3[C@@]2(CCC[C@@]3(C)C(=O)O)C",
    "inchi": "1S/C20H30O2/c1-13(2)14-6-8-16-15(12-14)7-9-17-19(16,3)10-5-11-20(17,4)18(21)22/h6,12-13,16-17H,5,7-11H2,1-4H3,(H,21,22)/t16-,17+,19+,20+/m0/s1",
    "inchikey": "RWWVEQKPFPXLGL-ONCXSQPRSA-N",
    "molecular_formula": "C20H30O2",
    "properties": {
        "melting_point": {
            "value": 150.0,
            "source": "Scifinder"
        }
    }
}