{
    "cas": "8022-90-0",
    "cid": 22311,
    "iupac_name": "1-methyl-4-prop-1-en-2-ylcyclohexene",
    "canonical_smiles": "CC1=CCC(CC1)C(=C)C",
    "isomeric_smiles": "CC1=CCC(CC1)C(=C)C",
    "inchi": "1S/C10H16/c1-8(2)10-6-4-9(3)5-7-10/h4,10H,1,5-7H2,2-3H3",
    "inchikey": "XMGQYMWWDOXHJM-UHFFFAOYSA-N",
    "molecular_formula": "C10H16",
    "compound_groups": [
        "cycloalkenes",
        "olefins"
    ],
    "properties": {
        "cetane_number": {
            "value": 18.9,
            "method": "IQT",
            "source": "Marquardt (2015)"
        },
        "boiling_point": {
            "value": 178.0,
            "source": "Scifinder"
        },
        "flash_point": {
            "value": 45.0,
            "source": "Co-Optima DB"
        },
        "heat_of_vaporization": {
            "value": 43.37,
            "source": "Pubchem converted from 77 cal/g"
        }
    }
}