{
    "cas": "85535-87-1",
    "cid": 5362751,
    "iupac_name": "(E)-undec-3-ene",
    "canonical_smiles": "CCCCCCCC=CCC",
    "isomeric_smiles": "CCCCCCC/C=C/CC",
    "inchi": "1S/C11H22/c1-3-5-7-9-11-10-8-6-4-2/h5,7H,3-4,6,8-11H2,1-2H3/b7-5+",
    "inchikey": "SDTYFWAQLSIEBH-FNORWQNLSA-N",
    "molecular_formula": "C11H22",
    "properties": {
        "boiling_point": {
            "value": 193.5,
            "source": "Scifinder"
        }
    }
}