{
    "cas": "868-57-5",
    "cid": 13357,
    "iupac_name": "methyl 2-methylbutanoate",
    "canonical_smiles": "CCC(C)C(=O)OC",
    "isomeric_smiles": "CCC(C)C(=O)OC",
    "inchi": "1S/C6H12O2/c1-4-5(2)6(7)8-3/h5H,4H2,1-3H3",
    "inchikey": "OCWLYWIFNDCWRZ-UHFFFAOYSA-N",
    "molecular_formula": "C6H12O2",
    "compound_groups": [
        "saturated esters"
    ],
    "properties": {
        "ysi_unified": {
            "value": 24.9
        },
        "research_octane_number": {
            "value": 110.5,
            "source": "[11]"
        },
        "motor_octane_number": {
            "value": 99.1,
            "source": "[11]"
        },
        "octane_sensitivity": {
            "value": 11.4,
            "source": "[11]"
        },
        "boiling_point": {
            "value": 116.0,
            "source": "Scifinder"
        },
        "flash_point": {
            "value": 32.0,
            "source": "Co-Optima DB"
        },
        "heat_of_vaporization": {
            "value": 39.32,
            "source": "NREL,  May 2016"
        }
    }
}