{
    "cas": "88230-35-7",
    "cid": 8908,
    "iupac_name": "hexyl acetate",
    "canonical_smiles": "CCCCCCOC(=O)C",
    "isomeric_smiles": "CCCCCCOC(=O)C",
    "inchi": "1S/C8H16O2/c1-3-4-5-6-7-10-8(2)9/h3-7H2,1-2H3",
    "inchikey": "AOGQPLXWSUTHQB-UHFFFAOYSA-N",
    "molecular_formula": "C8H16O2",
    "compound_groups": [
        "esters"
    ],
    "properties": {
        "cetane_number": {
            "value": "32.2",
            "method": "IQT",
            "source": "NREL (2014)"
        },
        "boiling_point": {
            "value": "171.5",
            "source": "Scifinder"
        },
        "flash_point": {
            "value": "45",
            "source": "Co-Optima DB"
        },
        "melting_point": {
            "value": "-80.9",
            "source": "Scifinder"
        }
    }
}