{
    "cas": "9006-04-6",
    "cid": 6557,
    "iupac_name": "2-methylbuta-1,3-diene",
    "canonical_smiles": "CC(=C)C=C",
    "isomeric_smiles": "CC(=C)C=C",
    "inchi": "1S/C5H8/c1-4-5(2)3/h4H,1-2H2,3H3",
    "inchikey": "RRHGJUQNOFWUDK-UHFFFAOYSA-N",
    "molecular_formula": "C5H8",
    "compound_groups": [
        "olefins"
    ],
    "properties": {
        "cetane_number": {
            "value": 13.0,
            "method": "IQT",
            "source": "Marquardt (2015)"
        },
        "research_octane_number": {
            "value": 99.05,
            "source": "[1]"
        },
        "motor_octane_number": {
            "value": 81.0,
            "source": "[1]"
        },
        "octane_sensitivity": {
            "value": 18.05,
            "source": "[1]"
        },
        "autoignition_temp": {
            "value": 220.0,
            "source": "Co-Optima DB"
        },
        "boiling_point": {
            "value": 34.067,
            "source": "Scifinder"
        },
        "flash_point": {
            "value": -54.0,
            "source": "Co-Optima DB"
        },
        "heat_of_vaporization": {
            "value": 28.9,
            "source": "Pub Chem"
        },
        "melting_point": {
            "value": -145.95,
            "source": "Scifinder"
        }
    }
}