{
    "cas": "933-48-2",
    "cid": 8298,
    "iupac_name": "3,3,5-trimethylcyclohexan-1-ol",
    "canonical_smiles": "CC1CC(CC(C1)(C)C)O",
    "isomeric_smiles": "CC1CC(CC(C1)(C)C)O",
    "inchi": "1S/C9H18O/c1-7-4-8(10)6-9(2,3)5-7/h7-8,10H,4-6H2,1-3H3",
    "inchikey": "BRRVXFOKWJKTGG-UHFFFAOYSA-N",
    "molecular_formula": "C9H18O",
    "properties": {
        "flash_point": {
            "value": 88.0,
            "source": "Co-Optima DB"
        }
    }
}