{
    "cas": "937-53-1",
    "cid": 637759,
    "iupac_name": "(E)-4-phenylbut-3-en-2-one",
    "canonical_smiles": "CC(=O)C=CC1=CC=CC=C1",
    "isomeric_smiles": "CC(=O)/C=C/C1=CC=CC=C1",
    "inchi": "1S/C10H10O/c1-9(11)7-8-10-5-3-2-4-6-10/h2-8H,1H3/b8-7+",
    "inchikey": "BWHOZHOGCMHOBV-BQYQJAHWSA-N",
    "molecular_formula": "C10H10O",
    "properties": {
        "flash_point": {
            "value": "123",
            "source": "Co-Optima DB"
        }
    }
}