{
    "cas": "93-51-6",
    "cid": 7144,
    "iupac_name": "2-methoxy-4-methylphenol",
    "canonical_smiles": "CC1=CC(=C(C=C1)O)OC",
    "isomeric_smiles": "CC1=CC(=C(C=C1)O)OC",
    "inchi": "1S/C8H10O2/c1-6-3-4-7(9)8(5-6)10-2/h3-5,9H,1-2H3",
    "inchikey": "PETRWTHZSKVLRE-UHFFFAOYSA-N",
    "molecular_formula": "C8H10O2",
    "compound_groups": [
        "aromatics",
        "ethers"
    ],
    "properties": {
        "cetane_number": {
            "value": "19.8",
            "method": "IQT",
            "source": "NREL (2014)"
        },
        "boiling_point": {
            "value": "221",
            "source": "Scifinder"
        },
        "flash_point": {
            "value": "99",
            "source": "Co-Optima DB"
        },
        "melting_point": {
            "value": "5.5",
            "source": "Scifinder"
        }
    }
}