{
    "cas": "93-58-3",
    "cid": 7150,
    "iupac_name": "methyl benzoate",
    "canonical_smiles": "COC(=O)C1=CC=CC=C1",
    "isomeric_smiles": "COC(=O)C1=CC=CC=C1",
    "inchi": "1S/C8H8O2/c1-10-8(9)7-5-3-2-4-6-7/h2-6H,1H3",
    "inchikey": "QPJVMBTYPHYUOC-UHFFFAOYSA-N",
    "molecular_formula": "C8H8O2",
    "properties": {
        "boiling_point": {
            "value": "199.6",
            "source": "Chemspider"
        },
        "flash_point": {
            "value": "82",
            "source": "Co-Optima DB"
        },
        "melting_point": {
            "value": "-12",
            "source": "Chemspider"
        }
    }
}