{
    "cas": "95-36-3",
    "cid": 7247,
    "iupac_name": "1,2,4-trimethylbenzene",
    "canonical_smiles": "CC1=CC(=C(C=C1)C)C",
    "isomeric_smiles": "CC1=CC(=C(C=C1)C)C",
    "inchi": "1S/C9H12/c1-7-4-5-8(2)9(3)6-7/h4-6H,1-3H3",
    "inchikey": "GWHJZXXIDMPWGX-UHFFFAOYSA-N",
    "molecular_formula": "C9H12",
    "compound_groups": [
        "aromatics",
        "aromatic (single ring)"
    ],
    "properties": {
        "cetane_number": {
            "value": 8.9,
            "method": "IQT",
            "source": "NREL (2014)"
        },
        "ysi_unified": {
            "value": 308.3
        },
        "research_octane_number": {
            "value": 108.6,
            "source": ""
        },
        "motor_octane_number": {
            "value": 104.4,
            "source": ""
        },
        "octane_sensitivity": {
            "value": 4.2,
            "source": ""
        },
        "kinematic_viscosity": {
            "value": 0.8547
        },
        "autoignition_temp": {
            "value": 500.0,
            "source": "Co-Optima DB"
        },
        "boiling_point": {
            "value": 169.0,
            "source": "Alfa Aesar"
        },
        "flash_point": {
            "value": 44.4,
            "source": "Co-Optima DB"
        },
        "heat_of_vaporization": {
            "value": 39.2,
            "source": "Pub Chem"
        }
    }
}