{
    "cas": "96-22-0",
    "cid": 7288,
    "iupac_name": "pentan-3-one",
    "canonical_smiles": "CCC(=O)CC",
    "isomeric_smiles": "CCC(=O)CC",
    "inchi": "1S/C5H10O/c1-3-5(6)4-2/h3-4H2,1-2H3",
    "inchikey": "FDPIMTJIUBPUKL-UHFFFAOYSA-N",
    "molecular_formula": "C5H10O",
    "compound_groups": [
        "ketones"
    ],
    "properties": {
        "cetane_number": {
            "value": 14.6,
            "method": "IQT",
            "source": "NREL (2014)"
        },
        "ysi_unified": {
            "value": 21.1
        },
        "research_octane_number": {
            "value": 106.8,
            "source": ""
        },
        "motor_octane_number": {
            "value": 99.9,
            "source": ""
        },
        "octane_sensitivity": {
            "value": 6.9,
            "source": ""
        },
        "boiling_point": {
            "value": 101.9,
            "source": "Scifinder"
        },
        "flash_point": {
            "value": 7.0,
            "source": "Co-Optima DB"
        },
        "heat_of_vaporization": {
            "value": 38.6,
            "source": "Chickos and Acree, 2003. Enthalpies of Vaporization of Organic and Organometallic Compounds"
        },
        "melting_point": {
            "value": -39.0,
            "source": "Scifinder"
        }
    }
}